! Touchstone file exported from HFSS 3D Layout Design 2025.1.0
!        File:           /vlsi/proj/neon/be/die0/users/eduard.sonkin/Ansys/Ansys/UCIE/Stripline/Stripline_bend.aedt
!        Generated:      02:23:06 PM Mar 16, 2025
!        Design:         Strip_bend_cutout_2mm_extended_5_10_inch
!        Project:        Stripline_bend
!        Setup:          Setup1
!        Solution:       Sweep1
!
! Variables:
!        $Tline = 18um
!        $Yspace = 69
!        apDia = 50mil
!        padDia = 30mil
!        viaDia = 20mil
!        w50strip = 12.4mil
!        w50ustrip = 50mil
!
# GHz S MA R 50.000000
! Terminal data exported
! Port[1] = Port1
! Port[2] = Port2
0                              0.0788188975796302 0                0.921166957214858 0                0.921166957214869 0                0.0788188853293228 0                
! Gamma         0.0120229694084007 0                0.0120260781057648 0                
! Port Impedance         50               0                50               0                
0.01                           0.0879471209740142 2.31143380698874 0.912250674271865 -3.67812067353243 0.912250674271865 -3.67812067353244 0.0879482112661735 2.31117304885205 
! Gamma         0.467019505576891 0.680544325624975 0.467162571340694 0.680704247806189 
! Port Impedance         50               0                50               0                
0.02                           0.091083533310674 0.619625298155988 0.908949057080721 -6.98762933796801 0.908949057080715 -6.98762933796812 0.0910866463889846 0.618742253896472 
! Gamma         0.593223740838067 1.1143031496348  0.593418487979391 1.11452995131303 
! Port Impedance         50               0                50               0                
0.03                           0.0935512227253976 -1.26742752224277 0.906398054767706 -10.2706609079554 0.9063980547677  -10.2706609079554 0.0935547447646902 -1.2685961900276 
! Gamma         0.663231547738288 1.53871231558545 0.663452425730206 1.53899418204088 
! Port Impedance         50               0                50               0                
0.04                           0.0955762081489481 -3.42779451708101 0.904171226463683 -13.5357179383336 0.90417122646368 -13.5357179383336 0.0955818383649156 -3.42838347085979 
! Gamma         0.71090533870107 1.96385558142986 0.711135593932475 1.96418932693193 
! Port Impedance         50               0                50               0                
0.05                           0.0972278410619624 -5.75320314717407 0.902101151926315 -16.7844069096566 0.902101151926314 -16.7844069096566 0.0972372333623487 -5.7531731050705 
! Gamma         0.747513457424905 2.38996254584069 0.747740304694963 2.39034936670945 
! Port Impedance         50               0                50               0                
0.06                           0.0985848736050925 -8.19479625645968 0.900167458058392 -20.0181750429095 0.900167458058392 -20.0181750429095 0.098599330824312 -8.19414872500864 
! Gamma         0.777545779538073 2.81660290072135 0.777759656808373 2.81704656124369 
! Port Impedance         50               0                50               0                
0.07                           0.0996816478297637 -10.7325621344469 0.898366130964562 -23.2400779771792 0.898366130964562 -23.2400779771792 0.0997024663932339 -10.7312591168112 
! Gamma         0.803216669767974 3.24352414741297 0.80341070515688 3.24402964211376 
! Port Impedance         50               0                50               0                
0.08                           0.100525349595566 -13.3498358900451 0.896681426401849 -26.4527684258378 0.896681426401848 -26.4527684258378 0.100553882328609 -13.347862696748 
! Gamma         0.825816194404652 3.67054352215731 0.825985595844575 3.67111630515448 
! Port Impedance         50               0                50               0                
0.09                           0.101116431431456 -16.0280348549276 0.895093384106981 -29.6577114958913 0.895093384106981 -29.6577114958912 0.101154038434833 -16.025428860203 
! Gamma         0.846150603425181 4.09746952402569 0.846292142270001 4.09811516771455 
! Port Impedance         50               0                50               0                
0.1                            0.101458417840356 -18.748104518815 0.893586571960837 -32.855276631273 0.893586571960838 -32.8552766312729 0.101506418508829 -18.7449570237627 
! Gamma         0.864718344708838 4.52408873018861 0.864829998498311 4.52481281698241 
! Port Impedance         50               0                50               0                
0.11                           0.100591452201902 -21.692645772657 0.893184153660169 -36.0057643392481 0.893184153660171 -36.0057643392481 0.100656585777317 -21.68850042358  
! Gamma         0.873392175363041 4.94306601922266 0.873495021119031 4.94389968228762 
! Port Impedance         50               0                50               0                
0.12                           0.0996703483599448 -24.5501742342218 0.892748904323489 -39.1661517826407 0.89274890432349 -39.1661517826407 0.0997517875273336 -24.5456157035992 
! Gamma         0.88109761757092 5.36418313415086 0.881192752882304 5.36512419015471 
! Port Impedance         50               0                50               0                
0.13                           0.0986909611499736 -27.3439692849438 0.892281751900631 -42.333968317064 0.892281751900632 -42.333968317064 0.0987882025156065 -27.3393616255403 
! Gamma         0.888164592741292 5.78700261643005 0.888252797422679 5.78804929651584 
! Port Impedance         50               0                50               0                
0.14                           0.0976495115482235 -30.0903962571277 0.891783196179768 -45.5074635223231 0.89178319617977 -45.5074635223231 0.0977622887781831 -30.0859701324676 
! Gamma         0.894821124161378 6.2111902666488  0.894902948540095 6.21234112624636 
! Port Impedance         50               0                50               0                
0.15                           0.096542745669986 -32.8012289326912 0.891253502265323 -48.6853556013837 0.891253502265325 -48.6853556013837 0.096670958957464 -32.7971361902705 
! Gamma         0.901228187893102 6.636487063265   0.901304014532225 6.63774091466135 
! Port Impedance         50               0                50               0                
0.16                           0.0953679425905236 -35.4850971681633 0.89069281857834 -51.8666794848646 0.890692818578342 -51.8666794848646 0.0955116018905129 -35.4814457977459 
! Gamma         0.907501562456544 7.06268948460641 0.907571649870816 7.06404534531252 
! Port Impedance         50               0                50               0                
0.17                           0.0941228731489747 -38.148415114776 0.890101243545562 -55.0506910199446 0.890101243545563 -55.0506910199447 0.0942820522303889 -38.1452920199678 
! Gamma         0.913725878193452 7.4896355408149  0.913790392118717 7.49109259418654 
! Port Impedance         50               0                50               0                
0.18                           0.0928057499941267 -40.7959916363054 0.889478861873493 -58.2368042383839 0.889478861873496 -58.236804238384 0.0929805488655965 -40.7934775718685 
! Gamma         0.919963862534659 7.91719472873005 0.920022898588909 7.91875229364595 
! Port Impedance         50               0                50               0                
0.19                           0.091415183304914 -43.4314407699188 0.888825763919343 -61.4245489508666 0.888825763919346 -61.4245489508668 0.0916056971915419 -43.4296200763614 
! Gamma         0.926262554429846 8.34526071290909 0.926316154847602 8.34691821934341 
! Port Impedance         50               0                50               0                
0.2                            0.0899501460962887 -46.0574630449873 0.888142056100583 -64.6135412979098 0.888142056100584 -64.6135412979099 0.0901564396627099 -46.0564298260911 
! Gamma         0.932657563560148 8.77374592570933 0.932705729540947 8.7755028963384  
! Port Impedance         50               0                50               0                
0.21                           0.0884099489407897 -48.676041275456 0.887427866763965 -67.8034628236252 0.887427866763967 -67.8034628236253 0.0886320348377217 -48.675903085075 
! Gamma         0.939176042152514 9.20257753495324 0.939218743244355 9.20443356976641 
! Port Impedance         50               0                50               0                
0.22                           0.0867942225759684 -51.2885782833579 0.886683349884669 -70.9940453132548 0.886683349884671 -70.994045313255 0.0870320436531471 -51.2894580379829 
! Gamma         0.945838792958665 9.63169439809805 0.945875974143502 9.63364916264203 
! Port Impedance         50               0                50               0                
0.23                           0.0851029066108607 -53.8959941632362 0.885908687816709 -74.1850596275257 0.885908687816711 -74.185059627526 0.0853563213183107 -53.8980307792239 
! Gamma         0.952661787379949 10.0610447368122 0.952693374601979 10.0630979519781 
! Port Impedance         50               0                50               0                
0.24                           0.0833362426936149 -56.498794534183 0.885104093671692 -77.3763073645949 0.885104093671693 -77.3763073645951 0.0836050133114965 -56.5021426488182 
! Gamma         0.959657274344029 10.4905843429705 0.959683178740396 10.4927357774048 
! Port Impedance         50               0                50               0                
0.25                           0.0814947707860022 -59.0971172834535 0.884269813578797 -80.567614569789 0.884269813578798 -80.5676145697892 0.0817785542004852 -59.1019463261659 
! Gamma         0.966834600861335 10.9202751820978 0.966854722147213 10.922524645343  
! Port Impedance         50               0                50               0                
0.26                           0.0795793274676837 -61.690762683621 0.883406128878602 -83.758826942829 0.883406128878603 -83.7588269428293 0.0798776682604912 -61.6972554997915 
! Gamma         0.974200826774194 11.350084295541  0.974215055903861 11.3524316326191 
! Port Impedance         50               0                50               0                
0.27                           0.0775910454562875 -64.2792099894188 0.882513358235221 -86.9498061653367 0.882513358235222 -86.9498061653369 0.0779033711084506 -64.2875611737799 
! Gamma         0.981761190587868 11.7799829305319 0.981769411876663 11.7824280175292 
! Port Impedance         50               0                50               0                
0.28                           0.075531353741675 -66.8616223373926 0.881591859608379 -90.1404270779197 0.88159185960838 -90.1404270779199 0.0758569717741926 -66.87203640082  
! Gamma         0.989519466256375 12.2099458456884 0.989521559110113 12.2124885858591 
! Port Impedance         50               0                50               0                
0.29                           0.0734019779109729 -69.4368407814179 0.880642032003263 -93.3305755021974 0.880642032003263 -93.3305755021976 0.0737400748008405 -69.4495302502434 
! Gamma         0.997478239305216 12.6399507517659 0.997474079626808 12.6425910722327 
! Port Impedance         50               0                50               0                
0.3                            0.071204940395477 -72.0033674813299 0.879664316930751 -96.5201465651199 0.879664316930751 -96.5201465651202 0.0715545821177899 -72.0185510100149 
! Gamma         1.00563912257048 13.0699778585917 1.00562858390064 13.0727157076864 
! Port Impedance         50               0                50               0                
0.31                           0.0689425605004762 -74.5593372852084 0.878659199508965 -99.7090434135455 0.878659199508965 -99.7090434135458 0.0693026945578598 -74.5772378501268 
! Gamma         1.01400292634189 13.5000095054086 1.01398588081562 13.5028448501936 
! Port Impedance         50               0                50               0                
0.32                           0.0666174542012898 -77.1024761374435 0.877627209148613 -102.897176234131 0.877627209148613 -102.897176234132 0.0669869130119536 -77.1233193711399 
! Gamma         1.02256979375455 13.9300298572266 1.02254611287575 13.9329626816107 
! Port Impedance         50               0                50               0                
0.33                           0.0642325338076126 -79.6300438122007 0.876568919782472 -106.084461518979 0.876568919782471 -106.084461518979 0.0646100393336419 -79.6540565338522 
! Gamma         1.0313393094073  14.3600246545737 1.03130886471493 14.3630549574141 
! Port Impedance         50               0                50               0                
0.34                           0.0617910077293826 -82.1387572837416 0.875484949592421 -109.270821515839 0.87548494959242 -109.270821515839 0.0621751772380701 -82.1661662833197 
! Gamma         1.0403105873216  14.78998100484   1.04027325093177 14.7931087985099 
! Port Impedance         50               0                50               0                
0.35                           0.0592963807242883 -84.624689513253 0.874375960224893 -112.456183835219 0.874375960224893 -112.456183835219 0.0596857335878372 -84.6557206553376 
! Gamma         1.04948234264522 15.2198872088146 1.04943798771521 15.2231125178428 
! Port Impedance         50               0                50               0                
0.36                           0.0567524551993547 -87.083136282822 0.873242655469889 -115.640481171799 0.873242655469887 -115.640481171799 0.0571454206527734 -87.1180140135492 
! Gamma         1.05885295065189 15.6497326146071 1.05880145177235 15.6530554744767 
! Port Impedance         50               0                50               0                
0.37                           0.0541633343874658 -89.5084407201126 0.872085779406833 -118.823651119493 0.872085779406832 -118.823651119493 0.0545582601816523 -89.5473880912361 
! Gamma         1.0684204956233  16.0795074946444 1.06836172915215 16.0829279506999 
! Port Impedance         50               0                50               0                
0.38                           0.0515334285719468 -91.8937608278501 0.870906114020566 -122.005636055433 0.870906114020563 -122.005636055434 0.0519285904799883 -91.9370002018368 
! Gamma         1.07818281168285 16.5092029412737 1.07811665602431 16.5127210478116 
! Port Impedance         50               0                50               0                
0.39                           0.0488674660368311 -94.2307589943384 0.869704476305425 -125.186383077103 0.869704476305422 -125.186383077103 0.0492610781981082 -94.2785136745575 
! Gamma         1.08813751714629 16.938810778028  1.08806385298147 16.9424265975844 
! Port Impedance         50               0                50               0                
0.4                            0.0461705111755302 -96.509182982676 0.868481714879798 -128.36584397546 0.868481714879795 -128.365843975461 0.0465607372969658 -96.5616801411018 
! Gamma         1.09828204364872 17.3683234836585 1.09820075414928 17.3720370860849 
! Port Impedance         50               0                50               0                
0.41                           0.0434479933403306 -98.7162934910488 0.867238706144111 -131.543975231634 0.867238706144109 -131.543975231634 0.0438329588211438 -98.7737689732641 
! Gamma         1.10861366102016 17.7977341268656 1.10852463201335 17.8015455887535 
! Port Impedance         50               0                50               0                
0.42                           0.0407057518151661 -100.836071068337 0.865976350022399 -134.720738026324 0.865976350022396 -134.720738026325 0.0410835569271909 -100.898776995519 
! Gamma         1.11912949868336 18.2270363100013 1.11903261879823 18.2309457140468 
! Port Impedance         50               0                50               0                
0.43                           0.0379501051777529 -102.848099980339 0.864695565334994 -137.896098253132 0.864695565334991 -137.896098253132 0.0383188395279521 -102.916316635305 
! Gamma         1.12982656418435 18.6562241204002 1.12972172497092 18.6602315548925 
! Port Impedance         50               0                50               0                
0.44                           0.0351879580540046 -104.725970047131 0.86339728485418 -141.070026526455 0.863397284854177 -141.070026526455 0.0355457166956282 -104.800024498682 
! Gamma         1.14070175936158 19.0852920879763 1.14058885539591 19.0893976462323 
! Port Impedance         50               0                50               0                
0.45                           0.0324269662442901 -106.434944790655 0.862082450101515 -144.242498177228 0.862082450101511 -144.242498177229 0.0327718680147748 -106.515240396404 
! Gamma         1.15175189454937 19.514235148116  1.15163082351614 19.5184389280375 
! Port Impedance         50               0                50               0                
0.46                           0.0296757950026277 -107.928489696817 0.86075200595143 -147.4134932326  0.860752005951426 -147.413493232601 0.0300060039934514 -108.015553632487 
! Gamma         1.16297370112201 19.9430486093036 1.1628443638813  19.9473507129751 
! Port Impedance         50               0                50               0                
0.47                           0.0269445298047025 -109.142993088945 0.859406895105844 -150.582996372775 0.859406895105841 -150.582996372775 0.0272582813826756 -109.237554537991 
! Gamma         1.17436384265693 20.3717281245136 1.17422614329796 20.3761286578246 
! Port Impedance         50               0                50               0                
0.48                           0.0242453438273202 -109.989567846183 0.858048052510463 -153.750996862982 0.858048052510459 -153.750996862982 0.0245409774449032 -110.092689670688 
! Gamma         1.18591892491543 20.8002696660328 1.18577277080371 20.8047687382262 
! Port Impedance         50               0                50               0                
0.49                           0.0215936104981437 -110.341077835928 0.856676399781419 -156.917488455389 0.856676399781414 -156.91748845539 0.0218696128361402 -110.454383597947 
! Gamma         1.19763550483404 21.2286695029151 1.19748080663603 21.2332672263609 
! Port Impedance         50               0                50               0                
0.5                            0.0190098097502385 -110.011366551889 0.855292839716287 -160.082469262311 0.855292839716282 -160.082469262311 0.019264873797615 -110.137439619338 
! Gamma         1.20951009864281 21.6569241811236 1.20934677035013 21.6616206709565 
! Port Impedance         50               0                50               0                
0.51                           0.0165228799960502 -108.722243534265 0.853898250957592 -163.24594159676 0.853898250957587 -163.24594159676 0.0167559888243829 -108.865332602689 
! Gamma         1.22153918925115 22.0850305056419 1.2213671481934  22.0898258794566 
! Port Impedance         50               0                50               0                
0.52                           0.0141762028318013 -106.054020632875 0.852493482878897 -166.407911781355 0.852493482878892 -166.407911781356 0.0143867514595615 -106.221245530528 
! Gamma         1.2337192329873  22.512985524461  1.2335383998363  22.5178799020397 
! Port Impedance         50               0                50               0                
0.53                           0.0120380945729254 -101.386967337176 0.85107935075856 -169.568389924574 0.851079350758555 -169.568389924574 0.0122260709791673 -101.590083152766 
! Gamma         1.24604666578324 22.9407865140156 1.2458569645461  22.9457800171417 
! Port Impedance         50               0                50               0                
0.54                           0.0102181330305175 -93.9002204999116 0.849656631305748 -172.727389667909 0.849656631305742 -172.727389667909 0.0103844026251561 -94.1567378133345 
! Gamma         1.25851790885306 23.3684309662173 1.25831926686515 23.3735237183866 
! Port Impedance         50               0                50               0                
0.55                           0.00888206229126636 -82.8768109143724 0.848226058594099 -175.884927902453 0.848226058594094 -175.884927902454 0.00902889981231461 -83.2046999598401 
! Gamma         1.27112937394558 23.795916576476  1.27092172185511 23.8011087026638 
! Port Impedance         50               0                50               0                
0.56                           0.00822785739864254 -68.7029908836092 0.8467883204572  -179.041024459046 0.846788320457194 -179.041024459046 0.00836006018069955 -69.1000776011627 
! Gamma         1.28387746820383 24.2232412328255 1.28366073994797 24.2285328593229 
! Port Impedance         50               0                50               0                
0.57                           0.00837097338956606 -53.8235272089823 0.845344055392067 177.804298225357 0.845344055392062 177.804298225357 0.00849717204567928 -54.251418350491 
! Gamma         1.29675859867295 24.6504030060107 1.29653273145532 24.6557942601518 
! Port Impedance         50               0                50               0                
0.58                           0.00922887308530524 -41.2863988557681 0.843893850009442 174.651015463104 0.843893850009437 174.651015463104 0.00936050713492378 -41.7006868430994 
! Gamma         1.30976917649895 25.0774001402546 1.30953411075255 25.0828911503453 
! Port Impedance         50               0                50               0                
0.59                           0.0105862415575369 -32.3404301492804 0.84243823706437 171.499100687631 0.842438237064364 171.499100687631 0.0107341138445318 -32.7229391232102 
! Gamma         1.32290562083488 25.5042310448594 1.32266130019223 25.5098219398978 
! Port Impedance         50               0                50               0                
0.6                            0.0122378759468837 -26.5788736405386 0.840977694090465 168.348525839329 0.840977694090459 168.348525839329 0.0124101378094924 -26.9312759199922 
! Gamma         1.33616436249065 25.9308942863241 1.3359107337414  25.9365851958993 
! Port Impedance         50               0                50               0                
0.61                           0.0140429858329624 -23.1545662000363 0.839512642654863 165.19926176031  0.839512642654857 165.19926176031  0.0142452554998098 -23.4843283814441 
! Gamma         1.34954184734154 26.3573885810366 1.34927886039172 26.363179635137  
! Port Impedance         50               0                50               0                
0.62                           0.0159147534837883 -21.3521467900308 0.838043448241775 162.051278594055 0.83804344824177 162.051278594055 0.0161508571512143 -21.6664244918816 
! Gamma         1.36303453951637 26.7837127884195 1.36276214733985 26.78960411734   
! Port Impedance         50               0                50               0                
0.63                           0.0177999665040243 -20.6723169289155 0.836570420765259 158.90454618415  0.836570420765253 158.90454618415  0.0180725501030781 -20.9766295235836 
! Gamma         1.37663892437301 27.2098659046399 1.37635708296579 27.2158576387847 
! Port Impedance         50               0                50               0                
0.64                           0.0196648501720854 -20.7829209580098 0.835093815700819 155.759034469985 0.835093815700814 155.759034469985 0.0199757688941499 -21.0812818932907 
! Gamma         1.39035151129244 27.6358470564877 1.39006017962032 27.6419393262618 
! Port Impedance         50               0                50               0                
0.65                           0.0214869028691744 -21.463001742605 0.833613835820808 152.614713872401 0.833613835820802 152.614713872401 0.021837453583567 -21.7583000941958 
! Gamma         1.40416883628715 28.0616554957108 1.40386797622932 28.0678484314519 
! Port Impedance         50               0                50               0                
0.66                           0.0232503680829471 -22.5630101391343 0.832130633508652 149.471555665067 0.832130633508646 149.471555665067 0.023641427528436 -22.8573416152252 
! Gamma         1.41808746443682 28.4872905937185 1.41777704073471 28.4935843254886 
! Port Impedance         50               0                50               0                
0.67                           0.024943697892242 -23.9793748247131 0.830644313618698 146.329532328387 0.830644313618692 146.329532328386 0.0253758063867562 -24.2742810380461 
! Gamma         1.43210399216945 28.9127518364566 1.43178397236685 28.919146493979  
! Port Impedance         50               0                50               0                
0.68                           0.0265580939038766 -25.6386222603308 0.829154936842604 143.188617881274 0.829154936842598 143.188617881274 0.0270315074323418 -25.9352550974925 
! Gamma         1.44621504939283 29.3380388194866 1.44588540377465 29.3445345320817 
! Port Impedance         50               0                50               0                
0.69                           0.0280866415863578 -27.4874032968262 0.827662523537185 140.048788185429 0.827662523537178 140.048788185429 0.0286013652238429 -27.786636762536 
! Gamma         1.46041730147469 29.7631512434422 1.46007800300901 29.7697481398716 
! Port Impedance         50               0                50               0                
0.7                            0.0295237806758268 -29.4861235603531 0.826167057960455 136.910021220373 0.826167057960449 136.910021220373 0.0300795907860041 -29.7886304087114 
! Gamma         1.47470745109071 30.1880889095835 1.4743584753649  30.1947871180014 
! Port Impedance         50               0                50               0                
0.71                           0.0308649717916322 -31.6047902476189 0.824668492859303 133.772297324967 0.824668492859296 133.772297324967 0.0314614313726551 -31.9110952284536 
! Gamma         1.48908223994009 30.612851715575  1.48872356509862 30.6196513634183 
! Port Impedance         50               0                50               0                
0.72                           0.0321064810436093 -33.8202448012612 0.823166754346717 130.635599403224 0.823166754346711 130.635599403223 0.0327429508593114 -34.1307623008615 
! Gamma         1.50353845033798 31.0374396513889 1.50317005701705 31.0443408653255 
! Port Impedance         50               0                50               0                
0.73                           0.0332452375636966 -36.1142793360874 0.821661747003978 127.499913091099 0.821661747003971 127.499913091099 0.0339208846944646 -36.4293404902755 
! Gamma         1.51807290668372 31.4618527954522 1.51769477794912 31.468855701249  
! Port Impedance         50               0                50               0                
0.74                           0.0342787372274325 -38.4723281424078 0.820153359138473 124.365226884342 0.820153359138467 124.365226884341 0.0349925420791926 -38.792200755246 
! Gamma         1.53268247682256 31.8860913107671 1.53229459810015 31.8931960333054 
! Port Impedance         50               0                50               0                
0.75                           0.0352049762682858 -40.8825408351751 0.818641468129619 121.231532222938 0.818641468129612 121.231532222938 0.035955738714909 -41.2074443175266 
! Gamma         1.54736407328435 32.3101554414287 1.54696643229774 32.3173621045618 
! Port Impedance         50               0                50               0                
0.76                           0.0360224045911857 -43.3351134891726 0.81712594578964 118.098823535285 0.817125945789633 118.098823535285 0.0368087496985405 -43.6652303103993 
! Gamma         1.56211465442925 32.7340455089976 1.56170724112986 32.7413542355665 
! Port Impedance         50               0                50               0                
0.77                           0.0367298922641258 -45.8217971321415 0.815606663671274 114.967098238581 0.815606663671267 114.967098238581 0.0375502758985721 -46.1572818095375 
! Gamma         1.57693122548232 33.1577619091804 1.57651403198594 33.1651728208953 
! Port Impedance         50               0                50               0                
0.78                           0.0373267049249311 -48.3355299936612 0.814083498251749 111.836356697882 0.814083498251742 111.836356697882 0.038179419453587 -48.6765163362718 
! Gamma         1.59181083947497 33.5813051085258 1.59138385999501 33.5888183259143 
! Port Impedance         50               0                50               0                
0.79                           0.0378124852675796 -50.8701571963932 0.812556335926529 108.706602144122 0.812556335926522 108.706602144122 0.0386956654936424 -51.2167643155128 
! Gamma         1.60675059809227 34.0046756412195 1.60631382887045 34.0122912836367 
! Port Impedance         50               0                50               0                
0.8                            0.0381872386928797 -53.4202128183583 0.811025077749466 105.577840551947 0.81102507774946 105.577840551947 0.0390988681253394 -53.7725502804696 
! Gamma         1.62174765242568 34.4278741060651 1.62130109166834 34.4355922915939 
! Port Impedance         50               0                50               0                
0.81                           0.0384513218157596 -55.9807466729078 0.809489643858411 102.450080480817 0.809489643858405 102.450080480817 0.0393892393420691 -56.3389190795364 
! Gamma         1.63679920364422 34.8509011634438 1.63634285145434 34.8587220088899 
! Port Impedance         50               0                50               0                