! Touchstone file exported from HFSS 3D Layout Design 2025.1.0
!        File:           /vlsi/proj/neon/be/die0/users/eduard.sonkin/Ansys/Ansys/UCIE/Stripline/Stripline_bend.aedt
!        Generated:      02:24:11 PM Mar 16, 2025
!        Design:         Strip_bend_cutout_2mm_extended_5_10_inch
!        Project:        Stripline_bend
!        Setup:          Setup1
!        Solution:       Sweep1
!
! Variables:
!        $Tline = 18um
!        $Yspace = 69
!        apDia = 50mil
!        padDia = 30mil
!        viaDia = 20mil
!        w50strip = 12.4mil
!        w50ustrip = 50mil
!
# GHz S MA R 50.000000
! Terminal data exported
! Port[1] = Port1
! Port[2] = Port2
0                              0.0416593595198087 0                0.958333415186284 0                0.958333415186287 0                0.0416593531557368 0                
! Gamma         0.0120229694084007 0                0.0120260781057648 0                
! Port Impedance         50               0                50               0                
0.01                           0.0467042799312679 4.03186918187654 0.953428496748648 -1.87630353663101 0.953428496748648 -1.87630353663102 0.0467048504613212 4.03161113847698 
! Gamma         0.467019505576891 0.680544325624975 0.467162571340694 0.680704247806189 
! Port Impedance         50               0                50               0                
0.02                           0.0485173513465916 3.88951427759247 0.951594929136129 -3.55772126427343 0.951594929136124 -3.55772126427354 0.0485196333032776 3.88834108855609 
! Gamma         0.593223740838067 1.1143031496348  0.593418487979391 1.11452995131303 
! Port Impedance         50               0                50               0                
0.03                           0.0500044709581498 3.5310030581174  0.950166660287315 -5.22474299361413 0.950166660287309 -5.22474299361413 0.0500064090039597 3.52932006593581 
! Gamma         0.663231547738288 1.53871231558545 0.663452425730206 1.53899418204088 
! Port Impedance         50               0                50               0                
0.04                           0.0512958726812685 2.88717489370146 0.948916501157539 -6.88169612408487 0.948916501157535 -6.88169612408484 0.0512987617151556 2.88641079839146 
! Gamma         0.71090533870107 1.96385558142986 0.711135593932475 1.96418932693193 
! Port Impedance         50               0                50               0                
0.05                           0.0524335035666659 2.0667130287744  0.947754487443864 -8.52969459755647 0.947754487443863 -8.52969459755646 0.0524384722804574 2.06671753456927 
! Gamma         0.747513457424905 2.38996254584069 0.747740304694963 2.39034936670945 
! Port Impedance         50               0                50               0                
0.06                           0.0534597774067897 1.11895478284709 0.946668586628569 -10.1695686902842 0.946668586628568 -10.1695686902842 0.0534675251703289 1.11958648468389 
! Gamma         0.777545779538073 2.81660290072135 0.777759656808373 2.81704656124369 
! Port Impedance         50               0                50               0                
0.07                           0.0543929970993347 0.0655700315120338 0.945656979204925 -11.8028957823709 0.945656979204925 -11.8028957823709 0.0544042114465785 0.0668424408019868 
! Gamma         0.803216669767974 3.24352414741297 0.80341070515688 3.24402964211376 
! Port Impedance         50               0                50               0                
0.08                           0.0552371825763302 -1.07532881206661 0.944712400885342 -13.4310661835281 0.944712400885342 -13.431066183528 0.055252637050076 -1.07339261587681 
! Gamma         0.825816194404652 3.67054352215731 0.825985595844575 3.67111630515448 
! Port Impedance         50               0                50               0                
0.09                           0.0559925642419583 -2.28442640797531 0.943825358268606 -15.054900158941 0.943825358268606 -15.054900158941 0.0560130825265929 -2.2818620651273 
! Gamma         0.846150603425181 4.09746952402569 0.846292142270001 4.09811516771455 
! Port Impedance         50               0                50               0                
0.1                            0.0566605134176352 -3.54256308926969 0.942988405828725 -16.6746832355867 0.942988405828726 -16.6746832355866 0.056686930136944 -3.53946883339796 
! Gamma         0.864718344708838 4.52408873018861 0.864829998498311 4.52481281698241 
! Port Impedance         50               0                50               0                
0.11                           0.056664371184239 -5.04225173130995 0.942772744017925 -18.2715221473405 0.942772744017927 -18.2715221473405 0.0567050142983963 -5.03821931989782 
! Gamma         0.873392175363041 4.94306601922266 0.873495021119031 4.94389968228762 
! Port Impedance         50               0                50               0                
0.12                           0.0566815820429977 -6.45326996672625 0.942539843610641 -19.8734772905882 0.942539843610643 -19.8734772905882 0.0567352345900167 -6.44953803454994 
! Gamma         0.88109761757092 5.36418313415086 0.881192752882304 5.36512419015471 
! Port Impedance         50               0                50               0                
0.13                           0.0567099174511305 -7.80030491181519 0.942290420889857 -21.479239305902 0.942290420889859 -21.479239305902 0.0567757405839826 -7.79764510351622 
! Gamma         0.888164592741292 5.78700261643005 0.888252797422679 5.78804929651584 
! Port Impedance         50               0                50               0                
0.14                           0.0567472307788925 -9.10085604170086 0.94202502137326 -23.0878845927636 0.942025021373262 -23.0878845927636 0.056824683863631 -9.09974541446832 
! Gamma         0.894821124161378 6.2111902666488  0.894902948540095 6.21234112624636 
! Port Impedance         50               0                50               0                
0.15                           0.0567915509819783 -10.3676620952074 0.941744076788088 -24.6987410710185 0.94174407678809 -24.6987410710185 0.0568803281140671 -10.3683913489988 
! Gamma         0.901228187893102 6.636487063265   0.901304014532225 6.63774091466135 
! Port Impedance         50               0                50               0                
0.16                           0.0568410907053075 -11.6102137830566 0.941447946647051 -26.3113069473834 0.941447946647053 -26.3113069473835 0.0569410709957825 -11.6129570772268 
! Gamma         0.907501562456544 7.06268948460641 0.907571649870816 7.06404534531252 
! Port Impedance         50               0                50               0                
0.17                           0.0568942252422787 -12.8357252624104 0.941136943912628 -27.9251994018706 0.94113694391263 -27.9251994018707 0.057005433743949 -12.8405862724175 
! Gamma         0.913725878193452 7.4896355408149  0.913790392118717 7.49109259418654 
! Port Impedance         50               0                50               0                
0.18                           0.0569494648983313 -14.0497751863746 0.940811349805727 -29.5401209584953 0.94081134980573 -29.5401209584954 0.05707204153734 -14.0568179751837 
! Gamma         0.919963862534659 7.91719472873005 0.920022898588909 7.91875229364595 
! Port Impedance         50               0                50               0                
0.19                           0.0570054291574133 -15.2567403262279 0.940471422135513 -31.1558367343162 0.940471422135516 -31.1558367343163 0.0571396036726458 -15.2660102027496 
! Gamma         0.926262554429846 8.34526071290909 0.926316154847602 8.34691821934341 
! Port Impedance         50               0                50               0                
0.2                            0.0570608252353541 -16.4600956362711 0.940117400044031 -32.7721586245484 0.940117400044033 -32.7721586245485 0.0572068966713165 -16.4716332213014 
! Gamma         0.932657563560148 8.77374592570933 0.932705729540947 8.7755028963384  
! Port Impedance         50               0                50               0                
0.21                           0.0571144312943371 -17.6626263102962 0.939749506877449 -34.3889340489599 0.939749506877451 -34.3889340489601 0.057272751002596 -17.6764768808202 
! Gamma         0.939176042152514 9.20257753495324 0.939218743244355 9.20443356976641 
! Port Impedance         50               0                50               0                
0.22                           0.0571650837732812 -18.8665806014568 0.939367952135   -36.0060377806625 0.939367952135002 -36.0060377806627 0.0573360411710078 -18.8828000882824 
! Gamma         0.945838792958665 9.63169439809805 0.945875974143502 9.63364916264203 
! Port Impedance         50               0                50               0                
0.23                           0.0572116680837399 -20.073781986651 0.938972932996705 -37.6233659097153 0.938972932996708 -37.6233659097156 0.0573956786235262 -20.0924405669399 
! Gamma         0.952661787379949 10.0610447368122 0.952693374601979 10.0630979519781 
! Port Impedance         50               0                50               0                
0.24                           0.0572531119457049 -21.2857129187049 0.938564635670039 -39.2408313145299 0.938564635670041 -39.2408313145302 0.0574506068937303 -21.3068968669927 
! Gamma         0.959657274344029 10.4905843429705 0.959683178740396 10.4927357774048 
! Port Impedance         50               0                50               0                
0.25                           0.057288380751671 -22.5035783894467 0.938143236665768 -40.8583602224457 0.938143236665769 -40.8583602224459 0.0574997984705878 -22.5273906669569 
! Gamma         0.966834600861335 10.9202751820978 0.966854722147213 10.922524645343  
! Port Impedance         50               0                50               0                
0.26                           0.0573164744559515 -23.7283549156034 0.937708904030386 -42.4758895644795 0.937708904030388 -42.4758895644798 0.0575422529582397 -23.7549148523513 
! Gamma         0.974200826774194 11.350084295541  0.974215055903861 11.3524316326191 
! Port Impedance         50               0                50               0                
0.27                           0.0573364256023554 -24.9608288448055 0.937261798539387 -44.0933649216831 0.937261798539388 -44.0933649216833 0.0575769961889011 -24.9902711808907 
! Gamma         0.981761190587868 11.7799829305319 0.981769411876663 11.7824280175292 
! Port Impedance         50               0                50               0                
0.28                           0.0573472981902978 -26.2016267258432 0.93680207484071 -45.7107389178505 0.936802074840711 -45.7107389178508 0.0576030800241001 -26.2341002145583 
! Gamma         0.989519466256375 12.2099458456884 0.989521559110113 12.2124885858591 
! Port Impedance         50               0                50               0                
0.29                           0.057348187145739 -27.4512396990081 0.936329882529495 -47.3279699492398 0.936329882529496 -47.3279699492401 0.0576195826363613 -27.4869054269751 
! Gamma         0.997478239305216 12.6399507517659 0.997474079626808 12.6425910722327 
! Port Impedance         50               0                50               0                
0.3                            0.0573382182245573 -28.7100433236768 0.935845367145101 -48.9450211750433 0.935845367145101 -48.9450211750436 0.0576256091182525 -28.749072867143 
! Gamma         1.00563912257048 13.0699778585917 1.00562858390064 13.0727157076864 
! Port Impedance         50               0                50               0                
0.31                           0.0573165482147262 -29.9783138782147 0.935348671080985 -50.561859709234 0.935348671080985 -50.5618597092343 0.057620292300066 -30.0208873866636 
! Gamma         1.01400292634189 13.5000095054086 1.01398588081562 13.5028448501936 
! Port Impedance         50               0                50               0                
0.32                           0.0572823653368115 -31.2562418982427 0.9348399344032  -52.1784559691747 0.934839934403199 -52.178455969175 0.0576027936875005 -31.3025461744687 
! Gamma         1.02256979375455 13.9300298572266 1.02254611287575 13.9329626816107 
! Port Impedance         50               0                50               0                
0.33                           0.0572348897696292 -32.5439435288374 0.934319295580856 -53.7947831499994 0.934319295580855 -53.7947831499997 0.0575723044559411 -32.5941701571604 
! Gamma         1.0313393094073  14.3600246545737 1.03130886471493 14.3630549574141 
! Port Impedance         50               0                50               0                
0.34                           0.057173374239982 -33.8414701198275 0.933786892125224 -55.4108167937492 0.933786892125223 -55.4108167937495 0.0575280464484144 -33.8958136801758 
! Gamma         1.0403105873216  14.78998100484   1.04027325093177 14.7931087985099 
! Port Impedance         50               0                50               0                
0.35                           0.0570971046396941 -35.1488164003592 0.933242861150664 -57.0265344395579 0.933242861150663 -57.0265344395583 0.0574692731475469 -35.207472794799 
! Gamma         1.04948234264522 15.2198872088146 1.04943798771521 15.2231125178428 
! Port Impedance         50               0                50               0                
0.36                           0.0570054006344125 -36.4659274837658 0.932687339857856 -58.6419153342442 0.932687339857855 -58.6419153342446 0.0573952705921788 -36.5290923931741 
! Gamma         1.05885295065189 15.6497326146071 1.05880145177235 15.6530554744767 
! Port Impedance         50               0                50               0                
0.37                           0.0568976162437248 -37.792704903825 0.932120465950398 -60.2569401939533 0.932120465950396 -60.2569401939536 0.0573053582237093 -37.8605723853526 
! Gamma         1.0684204956233  16.0795074946444 1.06836172915215 16.0829279506999 
! Port Impedance         50               0                50               0                
0.38                           0.0567731403750876 -39.1290118373358 0.931542377990866 -61.8715910057731 0.931542377990864 -61.8715910057735 0.0571988896496198 -39.201773067789 
! Gamma         1.07818281168285 16.5092029412737 1.07811665602431 16.5127210478116 
! Port Impedance         50               0                50               0                
0.39                           0.0566313973009227 -40.4746776378908 0.930953215705375 -63.4858508629037 0.930953215705373 -63.4858508629041 0.0570752533179827 -40.5525198038787 
! Gamma         1.08813751714629 16.938810778028  1.08806385298147 16.9424265975844 
! Port Impedance         50               0                50               0                
0.4                            0.0564718470705579 -41.8295017791469 0.930353120242924 -65.0997038263997 0.93035312024292 -65.0997038264   0.0569338730986613 -41.9126071115947 
! Gamma         1.09828204364872 17.3683234836585 1.09820075414928 17.3720370860849 
! Port Impedance         50               0                50               0                
0.41                           0.0562939858524499 -43.1932572878064 0.929742234396604 -66.7131348089423 0.929742234396601 -66.7131348089427 0.0567742087702602 -43.2818022360374 
! Gamma         1.10861366102016 17.7977341268656 1.10852463201335 17.8015455887535 
! Port Impedance         50               0                50               0                
0.42                           0.0560973462041693 -44.565693731434 0.92912070279282 -68.3261294768702 0.929120702792817 -68.3261294768705 0.0565957564135762 -44.6598482703099 
! Gamma         1.11912949868336 18.2270363100013 1.11903261879823 18.2309457140468 
! Port Impedance         50               0                50               0                
0.43                           0.0558814972693867 -45.9465398147054 0.928488672054212 -69.938674167698 0.928488672054209 -69.9386741676984 0.0563980487137188 -46.0464668771701 
! Gamma         1.12982656418435 18.6562241204002 1.12972172497092 18.6602315548925 
! Port Impedance         50               0                50               0                
0.44                           0.055646044901925 -47.3355056274475 0.927846290940169 -71.5507558199731 0.927846290940167 -71.5507558199735 0.0561806551735828 -47.4413606541238 
! Gamma         1.14070175936158 19.0852920879763 1.14058885539591 19.0893976462323 
! Port Impedance         50               0                50               0                
0.45                           0.055390631718303 -48.7322845809054 0.927193710468871 -73.1623619134814 0.927193710468868 -73.1623619134818 0.0559431822424398 -48.8442151780613 
! Gamma         1.15175189454937 19.514235148116  1.15163082351614 19.5184389280375 
! Port Impedance         50               0                50               0                
0.46                           0.0551149370811842 -50.1365550633071 0.92653108402493 -74.7734804190701 0.926531084024926 -74.7734804190705 0.055685273364123 -50.2547007604581 
! Gamma         1.16297370112201 19.9430486093036 1.1628443638813  19.9473507129751 
! Port Impedance         50               0                50               0                
0.47                           0.0548186770158697 -51.5479818389929 0.925858567454103 -76.3840997557   0.925858567454099 -76.3840997557003 0.0554066089487762 -51.6724739375739 
! Gamma         1.17436384265693 20.3717281245136 1.17422614329796 20.3761286578246 
! Port Impedance         50               0                50               0                
0.48                           0.054501604063107 -52.9662172127843 0.925176319147881 -77.994208754481 0.925176319147877 -77.9942087544813 0.055106906273035 -53.0971787176661 
! Gamma         1.18591892491543 20.8002696660328 1.18577277080371 20.8047687382262 
! Port Impedance         50               0                50               0                
0.49                           0.0541635070710826 -54.3909019758409 0.924484500118238 -79.6037966276195 0.924484500118234 -79.6037966276199 0.0547859193129047 -54.5284476019233 
! Gamma         1.19763550483404 21.2286695029151 1.19748080663603 21.2332672263609 
! Port Impedance         50               0                50               0                
0.5                            0.0538042109304716 -55.8216661486204 0.923783274065164 -81.2128529432003 0.923783274065159 -81.2128529432006 0.0544434385144236 -55.9659023952882 
! Gamma         1.20951009864281 21.6569241811236 1.20934677035013 21.6616206709565 
! Port Impedance         50               0                50               0                
0.51                           0.053423576255629 -57.258129531016 0.923072807436216 -82.8213676038041 0.92307280743621 -82.8213676038044 0.0540792905062374 -57.4091548178587 
! Gamma         1.22153918925115 22.0850305056419 1.2213671481934  22.0898258794566 
! Port Impedance         50               0                50               0                
0.52                           0.0530214990156903 -58.6999020690403 0.922353269479049 -84.4293308291498 0.922353269479044 -84.42933082915  0.0536933377587482 -58.8578069268909 
! Gamma         1.2337192329873  22.512985524461  1.2335383998363  22.5178799020397 
! Port Impedance         50               0                50               0                
0.53                           0.0525979101190415 -60.1465840438447 0.921624832286309 -86.0367331416686 0.921624832286303 -86.0367331416689 0.0532854781940576 -60.3114513558774 
! Gamma         1.24604666578324 22.9407865140156 1.2458569645461  22.9457800171417 
! Port Impedance         50               0                50               0                
0.54                           0.0521527749549513 -61.5977660883123 0.92088767083384 -87.6435653559208 0.920887670833834 -87.6435653559211 0.052855644751141 -61.7696713766373 
! Gamma         1.25851790885306 23.3684309662173 1.25831926686515 23.3735237183866 
! Port Impedance         50               0                50               0                
0.55                           0.0516860928956939 -63.0530290316846 0.920141963010367 -89.2498185699766 0.920141963010361 -89.2498185699769 0.0524038049101139 -63.2320407855813 
! Gamma         1.27112937394558 23.795916576476  1.27092172185511 23.8011087026638 
! Port Impedance         50               0                50               0                
0.56                           0.0511978967628898 -64.511943572733 0.919387889639036 -90.8554841594489 0.919387889639029 -90.8554841594491 0.0519299601797624 -64.6981236153762 
! Gamma         1.28387746820383 24.2232412328255 1.28366073994797 24.2285328593229 
! Port Impedance         50               0                50               0                
0.57                           0.0506882522615655 -65.9740697787882 0.918625634490086 -92.460553773887 0.918625634490081 -92.4605537738873 0.0514341455522012 -66.1674736700302 
! Gamma         1.29675859867295 24.6504030060107 1.29653273145532 24.6557942601518 
! Port Impedance         50               0                50               0                
0.58                           0.0501572573854435 -67.4389564050137 0.917855384283529 -94.0650193346955 0.917855384283523 -94.0650193346957 0.0509164289284611 -67.639633878505 
! Gamma         1.30976917649895 25.0774001402546 1.30953411075255 25.0828911503453 
! Port Impedance         50               0                50               0                
0.59                           0.0496050417970249 -68.9061400271449 0.917077328681795 -95.6688730352827 0.917077328681789 -95.6688730352829 0.0503769105187979 -69.114135460801 
! Gamma         1.32290562083488 25.5042310448594 1.32266130019223 25.5098219398978 
! Port Impedance         50               0                50               0                
0.6                            0.0490317661859908 -70.3751439765194 0.916291660271027 -97.272107342406 0.916291660271021 -97.2721073424063 0.0498157222214281 -70.5904968960818 
! Gamma         1.33616436249065 25.9308942863241 1.3359107337414  25.9365851958993 
! Port Impedance         50               0                50               0                
0.61                           0.0484376216095162 -71.8454770643513 0.915498574530663 -98.8747149990136 0.915498574530656 -98.8747149990138 0.0492330269834152 -72.0682226805519 
! Gamma         1.34954184734154 26.3573885810366 1.34927886039172 26.363179635137  
! Port Impedance         50               0                50               0                
0.62                           0.0478228288181528 -73.3166320781234 0.914698269790538 -100.476689028204 0.914698269790532 -100.476689028204 0.0486290181474605 -73.5468018587676 
! Gamma         1.36303453951637 26.7837127884195 1.36276214733985 26.78960411734   
! Port Impedance         50               0                50               0                
0.63                           0.0471876375709356 -74.7880840298047 0.913890947175395 -102.078022738753 0.913890947175388 -102.078022738753 0.0480039187883126 -75.0257063089283 
! Gamma         1.37663892437301 27.2098659046399 1.37635708296579 27.2158576387847 
! Port Impedance         50               0                50               0                
0.64                           0.04653232594371 -76.2592881294137 0.913076810535281 -103.67870973079 0.913076810535275 -103.67870973079 0.0473579810428318 -76.5043887565874 
! Gamma         1.39035151129244 27.6358470564877 1.39006017962032 27.6419393262618 
! Port Impedance         50               0                50               0                
0.65                           0.0458571996345962 -77.7296774545155 0.912256066362392 -105.27874390268 0.912256066362386 -105.278743902681 0.0466914854376404 -77.9822804883709 
! Gamma         1.40416883628715 28.0616554957108 1.40386797622932 28.0678484314519 
! Port Impedance         50               0                50               0                
0.66                           0.0451625912708256 -79.1986602789536 0.911428923693885 -106.878119458786 0.911428923693878 -106.878119458786 0.0460047402185877 -79.4587887301093 
! Gamma         1.41808746443682 28.4872905937185 1.41777704073471 28.4935843254886 
! Port Impedance         50               0                50               0                
0.67                           0.0444488597215757 -80.6656170166376 0.910595593999951 -108.476830917368 0.910595593999944 -108.476830917368 0.0452980806866475 -80.9332936464645 
! Gamma         1.43210399216945 28.9127518364566 1.43178397236685 28.919146493979  
! Port Impedance         50               0                50               0                
0.68                           0.0437163894216992 -82.1298967286443 0.909756291057257 -110.07487311873 0.90975629105725 -110.07487311873 0.044571868545115 -82.4051449117305 
! Gamma         1.44621504939283 29.3380388194866 1.44588540377465 29.3445345320817 
! Port Impedance         50               0                50               0                
0.69                           0.0429655897115133 -83.5908131323713 0.908911230808268 -111.672241234175 0.908911230808261 -111.672241234175 0.0438264912632362 -83.8736577922008 
! Gamma         1.46041730147469 29.7631512434422 1.46007800300901 29.7697481398716 
! Port Impedance         50               0                50               0                
0.7                            0.0421968941987396 -85.0476400381587 0.908060631205888 -113.268930774741 0.90806063120588 -113.268930774741 0.0430623614623271 -85.3381086674455 
! Gamma         1.47470745109071 30.1880889095835 1.4743584753649  30.1947871180014 
! Port Impedance         50               0                50               0                
0.71                           0.0414107601490681 -86.4996061259168 0.907204712043997 -114.864937600106 0.90720471204399 -114.864937600106 0.0422799163308197 -86.797729905305 
! Gamma         1.48908223994009 30.612851715575  1.48872356509862 30.6196513634183 
! Port Impedance         50               0                50               0                
0.72                           0.0406076679128718 -87.9458889563719 0.90634369477403 -116.460257927256 0.906343694774022 -116.460257927257 0.0414796170757233 -88.2517039879129 
! Gamma         1.50353845033798 31.0374396513889 1.50317005701705 31.0443408653255 
! Port Impedance         50               0                50               0                
0.73                           0.0397881203964339 -89.3856080915228 0.905477802308392 -118.054888339302 0.905477802308385 -118.054888339302 0.0406619484188312 -89.6991567665661 
! Gamma         1.51807290668372 31.4618527954522 1.51769477794912 31.468855701249  
! Port Impedance         50               0                50               0                
0.74                           0.038952642587797 -90.8178171723175 0.90460725881056 -119.648825793384 0.904607258810552 -119.648825793385 0.0398274181477568 -91.139149697349 
! Gamma         1.53268247682256 31.8860913107671 1.53229459810015 31.8931960333054 
! Port Impedance         50               0                50               0                
0.75                           0.0381017811481849 -92.2414947729056 0.903732289473676 -121.242067629178 0.903732289473668 -121.242067629178 0.038976556732719 -92.5706708815779 
! Gamma         1.54736407328435 32.3101554414287 1.54696643229774 32.3173621045618 
! Port Impedance         50               0                50               0                
0.76                           0.0372361040831194 -93.6555338097053 0.902853120286935 -122.834611575943 0.902853120286927 -122.834611575943 0.0381099170231957 -93.9926246950636 
! Gamma         1.56211465442925 32.7340455089976 1.56170724112986 32.7413542355665 
! Port Impedance         50               0                50               0                
0.77                           0.0363562005087074 -95.0587292398513 0.901969977791846 -124.426455759726 0.901969977791839 -124.426455759726 0.0372280740399062 -95.4038197478119 
! Gamma         1.57693122548232 33.1577619091804 1.57651403198594 33.1651728208953 
! Port Impedance         50               0                50               0                
0.78                           0.0354626805326739 -96.4497637230339 0.901083088828472 -126.017598709597 0.901083088828465 -126.017598709598 0.0363316248817064 -96.8029548568657 
! Gamma         1.59181083947497 33.5813051085258 1.59138385999501 33.5888183259143 
! Port Impedance         50               0                50               0                
0.79                           0.0345561752732807 -97.8271908494749 0.900192680272853 -127.608039363177 0.900192680272845 -127.608039363177 0.0354211887705465 -98.1886026458086 
! Gamma         1.60675059809227 34.0046756412195 1.60631382887045 34.0122912836367 
! Port Impedance         50               0                50               0                
0.8                            0.0336373370442991 -99.1894154459919 0.899298978766927 -129.197777071708 0.89929897876692 -129.197777071708 0.0344974072626807 -99.5591902962964 
! Gamma         1.62174765242568 34.4278741060651 1.62130109166834 34.4355922915939 
! Port Impedance         50               0                50               0                
0.81                           0.0327068397411187 -100.534670356903 0.898402210441448 -130.786811603899 0.898402210441441 -130.786811603899 0.0335609446612444 -100.912976865162 
! Gamma         1.63679920364422 34.8509011634438 1.63634285145434 34.8587220088899 
! Port Impedance         50               0                50               0                