! Touchstone file exported from HFSS 3D Layout Design 2025.1.0
!        File:           /vlsi/proj/neon/be/die0/users/eduard.sonkin/Ansys/Ansys/UCIE/Stripline/Stripline_bend.aedt
!        Generated:      08:29:34 PM Mar 19, 2025
!        Design:         Strip_bend_cutout_2mm_extended_5_10_inch
!        Project:        Stripline_bend
!        Setup:          Setup1
!        Solution:       Sweep1
!
! Variables:
!        $Tline = 18um
!        $Yspace = 69
!        apDia = 50mil
!        padDia = 30mil
!        viaDia = 20mil
!        w50strip = 12.4mil
!        w50ustrip = 50mil
!
# GHz S MA R 50.000000
! Terminal data exported
! Port[1] = Port1
! Port[2] = Port2
0                              0.145113481387479 0                0.854858533106338 0                0.854858533106348 0                0.145113458635834 0                
! Gamma         0.0120229694084007 0                0.0120260781057648 0                
! Port Impedance         50               0                50               0                
0.01                           0.160320153843856 -0.973325885880058 0.839731930235323 -7.26338100257021 0.839731930235323 -7.26338100257022 0.16032215624393 -0.97358806508368 
! Gamma         0.467019505576891 0.680544325624975 0.467162571340694 0.680704247806189 
! Port Impedance         50               0                50               0                
0.02                           0.164674790370137 -5.62500721122457 0.834193002360807 -13.8546467511698 0.834193002360802 -13.8546467511699 0.164679331887692 -5.62573648247841 
! Gamma         0.593223740838067 1.1143031496348  0.593418487979391 1.11452995131303 
! Port Impedance         50               0                50               0                
0.03                           0.167320487195062 -10.4311856709187 0.829926195305298 -20.4008538270555 0.829926195305293 -20.4008538270555 0.167326703346556 -10.4320863410558 
! Gamma         0.663231547738288 1.53871231558545 0.663452425730206 1.53899418204088 
! Port Impedance         50               0                50               0                
0.04                           0.168602368080311 -15.4788125629969 0.826154800083235 -26.9192869795807 0.826154800083232 -26.9192869795807 0.168612535972049 -15.4793112185018 
! Gamma         0.71090533870107 1.96385558142986 0.711135593932475 1.96418932693193 
! Port Impedance         50               0                50               0                
0.05                           0.168628352311572 -20.6567052410539 0.822567014063359 -33.4104324846365 0.822567014063359 -33.4104324846365 0.168644808732747 -20.6566632752639 
! Gamma         0.747513457424905 2.38996254584069 0.747740304694963 2.39034936670945 
! Port Impedance         50               0                50               0                
0.06                           0.167554539969252 -25.9139073729181 0.819126214851112 -39.875457208176 0.819126214851112 -39.875457208176 0.167579269078549 -25.9132532587773 
! Gamma         0.777545779538073 2.81660290072135 0.777759656808373 2.81704656124369 
! Port Impedance         50               0                50               0                
0.07                           0.165464112231515 -31.2296980717014 0.815821156354769 -46.3190970276229 0.81582115635477 -46.3190970276229 0.165498917821708 -31.2283819398124 
! Gamma         0.803216669767974 3.24352414741297 0.80341070515688 3.24402964211376 
! Port Impedance         50               0                50               0                
0.08                           0.162397894582504 -36.5852444188055 0.812618833501916 -52.7451387317846 0.812618833501916 -52.7451387317846 0.162444366874825 -36.5832572996582 
! Gamma         0.825816194404652 3.67054352215731 0.825985595844575 3.67111630515448 
! Port Impedance         50               0                50               0                
0.09                           0.158394631713382 -41.9575146224841 0.809482757489746 -59.154838354297 0.809482757489747 -59.154838354297 0.158454053330634 -41.9548958056164 
! Gamma         0.846150603425181 4.09746952402569 0.846292142270001 4.09811516771455 
! Port Impedance         50               0                50               0                
0.1                            0.15350939685294 -47.32101975541  0.806390538762246 -65.547269016306 0.806390538762247 -65.5472690163059 0.15358266811223 -47.3178574144374 
! Gamma         0.864718344708838 4.52408873018861 0.864829998498311 4.52481281698241 
! Port Impedance         50               0                50               0                
0.11                           0.146611433680399 -52.8563911850817 0.80504614336796 -71.8344503654528 0.805046143367961 -71.8344503654527 0.146699970789451 -52.8519684178681 
! Gamma         0.873392175363041 4.94306601922266 0.873495021119031 4.94389968228762 
! Port Impedance         50               0                50               0                
0.12                           0.139303381940788 -58.2595263585183 0.803619968409795 -78.1346064388379 0.803619968409796 -78.1346064388378 0.139405561616889 -58.2539782355623 
! Gamma         0.88109761757092 5.36418313415086 0.881192752882304 5.36512419015471 
! Port Impedance         50               0                50               0                
0.13                           0.131624919796309 -63.5413064794073 0.802122061303888 -84.4432005174398 0.802122061303889 -84.4432005174398 0.131739186112696 -63.53465248733  
! Gamma         0.888164592741292 5.78700261643005 0.888252797422679 5.78804929651584 
! Port Impedance         50               0                50               0                
0.14                           0.123619318528438 -68.7035996093651 0.800561407037292 -90.7570227074365 0.800561407037294 -90.7570227074365 0.123744090373209 -68.695782450458 
! Gamma         0.894821124161378 6.2111902666488  0.894902948540095 6.21234112624636 
! Port Impedance         50               0                50               0                
0.15                           0.115333550211681 -73.7404179908696 0.798946468078024 -97.0737510448353 0.798946468078026 -97.0737510448354 0.115467153381781 -73.7313240837062 
! Gamma         0.901228187893102 6.636487063265   0.901304014532225 6.63774091466135 
! Port Impedance         50               0                50               0                
0.16                           0.106818146755874 -78.63781943962  0.797285413200912 -103.391688063731 0.797285413200914 -103.391688063731 0.106958769240647 -78.627286814406 
! Gamma         0.907501562456544 7.06268948460641 0.907571649870816 7.06404534531252 
! Port Impedance         50               0                50               0                
0.17                           0.0981270580743279 -83.3726148059502 0.795586171236477 -109.70959459958 0.795586171236479 -109.70959459958 0.0982727270075941 -83.3604309034089 
! Gamma         0.913725878193452 7.4896355408149  0.913790392118717 7.49109259418654 
! Port Impedance         50               0                50               0                
0.18                           0.0893176650957571 -87.9096237981336 0.793856391364652 -116.02658004113 0.793856391364654 -116.026580041131 0.0894662447089103 -87.895513541126 
! Gamma         0.919963862534659 7.91719472873005 0.920022898588909 7.91875229364595 
! Port Impedance         50               0                50               0                
0.19                           0.0804511072460589 -92.1968115717939 0.792103356471328 -122.342026599493 0.79210335647133 -122.342026599493 0.0806003184806967 -92.1804142967212 
! Gamma         0.926262554429846 8.34526071290909 0.926316154847602 8.34691821934341 
! Port Impedance         50               0                50               0                
0.2                            0.0715931711853389 -96.1569612329358 0.790333876031309 -128.655534705183 0.79033387603131 -128.655534705183 0.0717406356528272 -96.1377932680575 
! Gamma         0.932657563560148 8.77374592570933 0.932705729540947 8.7755028963384  
! Port Impedance         50               0                50               0                
0.21                           0.0628162016027598 -99.6732658971018 0.788554173936424 -134.966881816268 0.788554173936425 -134.966881816269 0.0629595161114178 -99.6506638569204 
! Gamma         0.939176042152514 9.20257753495324 0.939218743244355 9.20443356976641 
! Port Impedance         50               0                50               0                
0.22                           0.0542029706633407 -102.563688744627 0.786769780724763 -141.275989870882 0.786769780724765 -141.275989870882 0.0543398253048674 -102.536728776236 
! Gamma         0.945838792958665 9.63169439809805 0.945875974143502 9.63364916264203 
! Port Impedance         50               0                50               0                
0.23                           0.0458545234327209 -104.533792821908 0.784985436437004 -147.582898377309 0.784985436437006 -147.582898377309 0.0459828898198247 -104.501192022821 
! Gamma         0.952661787379949 10.0610447368122 0.952693374601979 10.0630979519781 
! Port Impedance         50               0                50               0                
0.24                           0.0379065516864199 -105.087872544509 0.783205008498684 -153.887741209172 0.783205008498685 -153.887741209172 0.0380249951030146 -105.047939542381 
! Gamma         0.959657274344029 10.4905843429705 0.959683178740396 10.4927357774048 
! Port Impedance         50               0                50               0                
0.25                           0.0305647246913264 -103.365322052373 0.78143142796591 -160.190725892556 0.781431427965911 -160.190725892556 0.0306729410580335 -103.316295733616 
! Gamma         0.966834600861335 10.9202751820978 0.966854722147213 10.922524645343  
! Port Impedance         50               0                50               0                
0.26                           0.0241803291850015 -97.8999182316591 0.779666646687274 -166.492114607706 0.779666646687275 -166.492114607706 0.0242800324282128 -97.8420761397904 
! Gamma         0.974200826774194 11.350084295541  0.974215055903861 11.3524316326191 
! Port Impedance         50               0                50               0                
0.27                           0.019381522273518 -86.6903687719825 0.777911617357771 -172.792206472026 0.777911617357772 -172.792206472026 0.0194774531522559 -86.6334816299423 
! Gamma         0.981761190587868 11.7799829305319 0.981769411876663 11.7824280175292 
! Port Impedance         50               0                50               0                
0.28                           0.017085459354383 -69.3964509517095 0.776166297853614 -179.091320892776 0.776166297853615 -179.091320892777 0.0171848316975483 -69.3679415124994 
! Gamma         0.989519466256375 12.2099458456884 0.989521559110113 12.2124885858591 
! Port Impedance         50               0                50               0                
0.29                           0.0177880256241288 -51.3632707729859 0.7744296806107  174.610218077321 0.774429680610701 174.610218077321 0.0178978660340776 -51.3806539168337 
! Gamma         0.997478239305216 12.6399507517659 0.997474079626808 12.6425910722327 
! Port Impedance         50               0                50               0                
0.3                            0.020752838030982 -38.8659216942487 0.772699847171075 168.312096312738 0.772699847171075 168.312096312737 0.0208798039176867 -38.9130607956772 
! Gamma         1.00563912257048 13.0699778585917 1.00562858390064 13.0727157076864 
! Port Impedance         50               0                50               0                
0.31                           0.0248079274590862 -32.4200935198676 0.770974047284141 162.014022979231 0.770974047284141 162.014022979231 0.0249581884301158 -32.4789793318906 
! Gamma         1.01400292634189 13.5000095054086 1.01398588081562 13.5028448501936 
! Port Impedance         50               0                50               0                
0.32                           0.0291746293802017 -30.0572090102901 0.769248801173861 155.715742499448 0.769248801173861 155.715742499448 0.0293528005306042 -30.1199412217203 
! Gamma         1.02256979375455 13.9300298572266 1.02254611287575 13.9329626816107 
! Port Impedance         50               0                50               0                
0.33                           0.0334466537032315 -30.1735718495987 0.767520022779833 149.417044890756 0.767520022779832 149.417044890755 0.0336557153805286 -30.2377056707173 
! Gamma         1.0313393094073  14.3600246545737 1.03130886471493 14.3630549574141 
! Port Impedance         50               0                50               0                
0.34                           0.0374124697442164 -31.8092278698614 0.765783160923691 143.117774272511 0.76578316092369 143.117774272511 0.0376540826958345 -31.874344812393 
! Gamma         1.0403105873216  14.78998100484   1.04027325093177 14.7931087985099 
! Port Impedance         50               0                50               0                
0.35                           0.040954669276391 -34.4101993921716 0.764033354598264 136.817835309599 0.764033354598264 136.817835309598 0.0412294363537929 -34.4765584785871 
! Gamma         1.04948234264522 15.2198872088146 1.04943798771521 15.2231125178428 
! Port Impedance         50               0                50               0                
0.36                           0.0440041611262158 -37.6469290702967 0.762265597800709 130.517197438658 0.762265597800708 130.517197438657 0.0443117900562567 -37.7149906934036 
! Gamma         1.05885295065189 15.6497326146071 1.05880145177235 15.6530554744767 
! Port Impedance         50               0                50               0                
0.37                           0.0465193584102306 -41.3138074181692 0.760474908747018 124.215896742697 0.760474908747017 124.215896742697 0.0468587612429513 -41.3840684802596 
! Gamma         1.0684204956233  16.0795074946444 1.06836172915215 16.0829279506999 
! Port Impedance         50               0                50               0                
0.38                           0.0484762419993486 -45.2757374314592 0.758656497838512 117.914035422252 0.75865649783851 117.914035422251 0.048845602171868 -45.3486765458527 
! Gamma         1.07818281168285 16.5092029412737 1.07811665602431 16.5127210478116 
! Port Impedance         50               0                50               0                
0.39                           0.049863326766732 -49.4390302726343 0.756805928521575 111.611778877036 0.756805928521574 111.611778877036 0.0502601525529566 -49.5150926269461 
! Gamma         1.08813751714629 16.938810778028  1.08806385298147 16.9424265975844 
! Port Impedance         50               0                50               0                
0.4                            0.0506789540345739 -53.7348431014759 0.754919265184544 105.30935050427  0.754919265184542 105.309350504269 0.0511001289758137 -53.8144398326398 
! Gamma         1.09828204364872 17.3683234836585 1.09820075414928 17.3720370860849 
! Port Impedance         50               0                50               0                
0.41                           0.0509297429635486 -58.1092241415082 0.752993202525836 99.0070244015616 0.752993202525834 99.0070244015612 0.0513715791913704 -58.1927371457693 
! Gamma         1.10861366102016 17.7977341268656 1.10852463201335 17.8015455887535 
! Port Impedance         50               0                50               0                
0.42                           0.0506296451381664 -62.5166993690508 0.751025171397374 92.7051162474448 0.751025171397372 92.7051162474445 0.0510879428895562 -62.6044884741088 
! Gamma         1.11912949868336 18.2270363100013 1.11903261879823 18.2309457140468 
! Port Impedance         50               0                50               0                
0.43                           0.0497993288506  -66.9157290923016 0.749013416973727 86.4039727089167 0.749013416973724 86.4039727089164 0.0502694440279515 -67.0081409665093 
! Gamma         1.12982656418435 18.6562241204002 1.12972172497092 18.6602315548925 
! Port Impedance         50               0                50               0                
0.44                           0.048465760531012 -71.2650361693527 0.746957046183153 80.1039597942853 0.74695704618315 80.103959794285  0.0489426814004659 -71.3624155819719 
! Gamma         1.14070175936158 19.0852920879763 1.14058885539591 19.0893976462323 
! Port Impedance         50               0                50               0                
0.45                           0.0466619301450379 -75.5201089713709 0.744856042621157 73.8054506152919 0.744856042621154 73.8054506152916 0.047140363982367 -75.6228140110138 
! Gamma         1.15175189454937 19.514235148116  1.15163082351614 19.5184389280375 
! Port Impedance         50               0                50               0                
0.46                           0.0444267225688902 -79.6292614667455 0.742711248576038 67.5088130472636 0.742711248576035 67.5088130472632 0.0449011932013702 -79.7376856266651 
! Gamma         1.16297370112201 19.9430486093036 1.1628443638813  19.9473507129751 
! Port Impedance         50               0                50               0                
0.47                           0.0418049898328891 -83.5285363889807 0.740524315241056 61.2143977897464 0.740524315241053 61.214397789746  0.042269947669316 -83.6431426122019 
! Gamma         1.17436384265693 20.3717281245136 1.17422614329796 20.3761286578246 
! Port Impedance         50               0                50               0                
0.48                           0.0388479492803813 -87.1344429570457 0.738297623605203 54.9225273050257 0.7382976236052  54.9225273050254 0.0392978968088751 -87.2558187205996 
! Gamma         1.18591892491543 20.8002696660328 1.18577277080371 20.8047687382262 
! Port Impedance         50               0                50               0                
0.49                           0.0356141478135289 -90.3329424104931 0.736034179796831 48.6334860798661 0.736034179796827 48.6334860798658 0.0360437861709758 -90.4618924090438 
! Gamma         1.19763550483404 21.2286695029151 1.19748080663603 21.2332672263609 
! Port Impedance         50               0                50               0                
0.5                            0.0321714421259501 -92.9620911688098 0.733737489754899 42.3475125836039 0.733737489754895 42.3475125836036 0.0325758491536795 -93.0997981958356 
! Gamma         1.20951009864281 21.6569241811236 1.20934677035013 21.6616206709565 
! Port Impedance         50               0                50               0                
0.51                           0.0286008424022105 -94.7842402294242 0.731411418929618 36.0647932297225 0.731411418929613 36.0647932297222 0.0289757013810972 -94.932549968203 
! Gamma         1.22153918925115 22.0850305056419 1.2213671481934  22.0898258794566 
! Port Impedance         50               0                50               0                
0.52                           0.0250038076689509 -95.4423472817776 0.729060043261459 29.7854585483481 0.729060043261456 29.7854585483478 0.025345721848955 -95.6042694697463 
! Gamma         1.2337192329873  22.512985524461  1.2335383998363  22.5178799020397 
! Port Impedance         50               0                50               0                
0.53                           0.0215157784613466 -94.3985056921435 0.726687497909627 23.5095816829946 0.726687497909622 23.5095816829943 0.0218227344585629 -94.5790317969039 
! Gamma         1.24604666578324 22.9407865140156 1.2458569645461  22.9457800171417 
! Port Impedance         50               0                50               0                
0.54                           0.0183295372569788 -90.882635559618 0.724297830119703 17.2371792144701 0.724297830119698 17.2371792144698 0.0186016245937311 -91.0896940522017 
! Gamma         1.25851790885306 23.3684309662173 1.25831926686515 23.3735237183866 
! Port Impedance         50               0                50               0                
0.55                           0.0157260563154965 -84.0028942124259 0.721894862232206 10.9682142255076 0.721894862232201 10.9682142255073 0.0159665975510685 -84.2467520917384 
! Gamma         1.27112937394558 23.795916576476  1.27092172185511 23.8011087026638 
! Port Impedance         50               0                50               0                
0.56                           0.0140755710530871 -73.4291926134351 0.719482070202725 4.70260141547006 0.71948207020272 4.70260141546979 0.0142927353414256 -73.715297921226 
! Gamma         1.28387746820383 24.2232412328255 1.28366073994797 24.2285328593229 
! Port Impedance         50               0                50               0                
0.57                           0.0137047168358181 -60.7195006767125 0.717062482149876 -1.55978600495445 0.717062482149871 -1.55978600495471 0.013912828199084 -61.0353038939208 
! Gamma         1.29675859867295 24.6504030060107 1.29653273145532 24.6557942601518 
! Port Impedance         50               0                50               0                
0.58                           0.0146336722283358 -49.1650416186035 0.714638600433305 -7.81910797642049 0.7146386004333  -7.81910797642074 0.0148514684797563 -49.4849467118927 
! Gamma         1.30976917649895 25.0774001402546 1.30953411075255 25.0828911503453 
! Port Impedance         50               0                50               0                
0.59                           0.0165332346235063 -41.0494879714645 0.712212349646434 -14.0755482075708 0.71221234964643 -14.075548207571 0.0167784591796276 -41.357638148711 
! Gamma         1.32290562083488 25.5042310448594 1.32266130019223 25.5098219398978 
! Port Impedance         50               0                50               0                
0.6                            0.0189846957271138 -36.5007386117385 0.709785051727942 -20.3293041704088 0.709785051727937 -20.329304170409 0.0192702240321321 -36.7952122985378 
! Gamma         1.33616436249065 25.9308942863241 1.3359107337414  25.9365851958993 
! Port Impedance         50               0                50               0                
0.61                           0.0216646724410996 -34.689068822808 0.707357428216356 -26.580576920701 0.707357428216351 -26.5805769207012 0.0219983476107546 -34.9735586578472 
! Gamma         1.34954184734154 26.3573885810366 1.34927886039172 26.363179635137  
! Port Impedance         50               0                50               0                
0.62                           0.0243615320532949 -34.7766581227797 0.704929628527537 -32.8295611842261 0.704929628527532 -32.8295611842264 0.0247474123451871 -35.0554024875266 
! Gamma         1.36303453951637 26.7837127884195 1.36276214733985 26.78960411734   
! Port Impedance         50               0                50               0                
0.63                           0.0269398292641819 -36.1538892821177 0.702501282074013 -39.0764361317432 0.702501282074008 -39.0764361317434 0.0273793008928293 -36.4302954935551 
! Gamma         1.37663892437301 27.2098659046399 1.37635708296579 27.2158576387847 
! Port Impedance         50               0                50               0                
0.64                           0.0293102145521759 -38.4124391918556 0.700071571094929 -45.3213572195419 0.700071571094924 -45.321357219542 0.0298027149790423 -38.6890225307894 
! Gamma         1.39035151129244 27.6358470564877 1.39006017962032 27.6419393262618 
! Port Impedance         50               0                50               0                
0.65                           0.031411519216456 -41.2809166212971 0.697639320275272 -51.5644494281291 0.697639320275267 -51.5644494281293 0.0319549808258739 -41.5595149597655 
! Gamma         1.40416883628715 28.0616554957108 1.40386797622932 28.0678484314519 
! Port Impedance         50               0                50               0                
0.66                           0.0332009185150945 -44.5751422322544 0.695203098610985 -57.8058021586283 0.695203098610979 -57.8058021586285 0.0337920508602218 -44.8571252028371 
! Gamma         1.41808746443682 28.4872905937185 1.41777704073471 28.4935843254886 
! Port Impedance         50               0                50               0                
0.67                           0.0346485543525609 -48.165834821162 0.692761328557578 -64.0454659667752 0.692761328557573 -64.0454659667753 0.0352830395135075 -48.4522600325021 
! Gamma         1.43210399216945 28.9127518364566 1.43178397236685 28.919146493979  
! Port Impedance         50               0                50               0                
0.68                           0.0357345296243224 -51.9583737074579 0.690312397302423 -70.2834512324746 0.690312397302418 -70.2834512324748 0.0364071727056268 -52.2500970761204 
! Gamma         1.44621504939283 29.3380388194866 1.44588540377465 29.3445345320817 
! Port Impedance         50               0                50               0                
0.69                           0.0364471725558807 -55.8800027690553 0.68785476503046 -76.5197287759812 0.687854765030454 -76.5197287759814 0.0371520305280305 -56.177757477159 
! Gamma         1.46041730147469 29.7631512434422 1.46007800300901 29.7697481398716 
! Port Impedance         50               0                50               0                
0.7                            0.0367819966947083 -59.8714557597865 0.685387065307779 -82.7542323367372 0.685387065307773 -82.7542323367374 0.0375124984976545 -60.1759119227248 
! Gamma         1.47470745109071 30.1880889095835 1.4743584753649  30.1947871180014 
! Port Impedance         50               0                50               0                
0.71                           0.0367410550244828 -63.8811525512688 0.682908193189686 -88.9868627527862 0.68290819318968 -88.9868627527864 0.0374901202717543 -64.1929665060186 
! Gamma         1.48908223994009 30.612851715575  1.48872356509862 30.6196513634183 
! Port Impedance         50               0                50               0                
0.72                           0.0363325308813806 -67.8608189655931 0.680417377337368 -95.2174935998532 0.680417377337362 -95.2174935998534 0.0370926914931634 -68.1806789545903 
! Gamma         1.50353845033798 31.0374396513889 1.50317005701705 31.0443408653255 
! Port Impedance         50               0                50               0                
0.73                           0.035570489469154 -71.7617709825953 0.677914233276706 -101.445977989095 0.6779142332767  -101.445977989096 0.0363340170250739 -72.0904450215486 
! Gamma         1.51807290668372 31.4618527954522 1.51769477794912 31.468855701249  
! Port Impedance         50               0                50               0                
0.74                           0.0344747653179163 -75.531294060659 0.67539879590333 -107.672156168844 0.675398795903324 -107.672156168844 0.0352338063333834 -75.8696857937565 
! Gamma         1.53268247682256 31.8860913107671 1.53229459810015 31.8931960333054 
! Port Impedance         50               0                50               0                
0.75                           0.0330710014469991 -79.1086072959781 0.672871530393126 -113.895863555562 0.672871530393121 -113.895863555562 0.0338177229502745 -79.4578265450808 
! Gamma         1.54736407328435 32.3101554414287 1.54696643229774 32.3173621045618 
! Port Impedance         50               0                50               0                
0.76                           0.031390897515192 -82.4198646537649 0.670333321738045 -120.116938794112 0.67033332173804 -120.116938794112 0.0321176462779118 -82.7813210225365 
! Gamma         1.56211465442925 32.7340455089976 1.56170724112986 32.7413542355665 
! Port Impedance         50               0                50               0                
0.77                           0.0294727777596027 -85.3715356064934 0.667785444165793 -126.335231470262 0.667785444165788 -126.335231470262 0.0301722585849049 -85.7470653890745 
! Gamma         1.57693122548232 33.1577619091804 1.57651403198594 33.1651728208953 
! Port Impedance         50               0                50               0                
0.78                           0.0273626670344828 -87.8413790482685 0.665229512632944 -132.550609114701 0.665229512632938 -132.550609114701 0.0280281492267932 -88.2334158308948 
! Gamma         1.59181083947497 33.5813051085258 1.59138385999501 33.5888183259143 
! Port Impedance         50               0                50               0                
0.79                           0.0251161761883017 -89.6662678628459 0.662667419379859 -138.762963187301 0.662667419379854 -138.762963187301 0.0257417438253987 -90.0780590185891 
! Gamma         1.60675059809227 34.0046756412195 1.60631382887045 34.0122912836367 
! Port Impedance         50               0                50               0                
0.8                            0.0228016410132843 -90.6269661268355 0.660101259151688 -144.97221378857 0.660101259151684 -144.97221378857 0.0233825138551473 -91.0628013541167 
! Gamma         1.62174765242568 34.4278741060651 1.62130109166834 34.4355922915939 
! Port Impedance         50               0                50               0                
0.81                           0.0205050424154005 -90.4334556854154 0.657533247097029 -151.178312909949 0.657533247097024 -151.178312909949 0.0210380132025741 -90.8987584838677 
! Gamma         1.63679920364422 34.8509011634438 1.63634285145434 34.8587220088899 
! Port Impedance         50               0                50               0                