! Touchstone file exported from HFSS 3D Layout Design 2025.1.0
!        File:           /vlsi/proj/neon/be/die0/users/eduard.sonkin/Ansys/Ansys/UCIE/Stripline/Stripline_bend.aedt
!        Generated:      08:30:45 PM Mar 19, 2025
!        Design:         Strip_bend_cutout_2mm_extended_5_10_inch
!        Project:        Stripline_bend
!        Setup:          Setup1
!        Solution:       Sweep1
!
! Variables:
!        $Tline = 18um
!        $Yspace = 69
!        apDia = 50mil
!        padDia = 30mil
!        viaDia = 20mil
!        w50strip = 12.4mil
!        w50ustrip = 50mil
!
# GHz S MA R 50.000000
! Terminal data exported
! Port[1] = Port1
! Port[2] = Port2
0                              0.202504651315309 0                0.797453522396905 0                0.797453522396915 0                0.202504619472666 0                
! Gamma         0.0120229694084007 0                0.0120260781057648 0                
! Port Impedance         50               0                50               0                
0.01                           0.221460664522811 -4.07936626855863 0.777912660429752 -10.8648727107127 0.777912660429752 -10.8648727107127 0.221463437507154 -4.07962895398249 
! Gamma         0.467019505576891 0.680544325624975 0.467162571340694 0.680704247806189 
! Port Impedance         50               0                50               0                
0.02                           0.224900575813604 -11.5382846988948 0.77067864194614 -20.8061855410172 0.770678641946136 -20.8061855410173 0.224906274831127 -11.5389574255642 
! Gamma         0.593223740838067 1.1143031496348  0.593418487979391 1.11452995131303 
! Port Impedance         50               0                50               0                
0.03                           0.224784889888856 -19.0933666038887 0.764917080153128 -30.6899838759727 0.764917080153123 -30.6899838759727 0.224793218417415 -19.094172791984 
! Gamma         0.663231547738288 1.53871231558545 0.663452425730206 1.53899418204088 
! Port Impedance         50               0                50               0                
0.04                           0.221555655456448 -26.8259161602693 0.759538415640146 -40.5389092970654 0.759538415640144 -40.5389092970654 0.22156913683961 -26.8263839842583 
! Gamma         0.71090533870107 1.96385558142986 0.711135593932475 1.96418932693193 
! Port Impedance         50               0                50               0                
0.05                           0.215439379530137 -34.6041202517909 0.75411380756348 -50.3456603176908 0.75411380756348 -50.3456603176908 0.215460485731195 -34.6040755580597 
! Gamma         0.747513457424905 2.38996254584069 0.747740304694963 2.39034936670945 
! Port Impedance         50               0                50               0                
0.06                           0.206800477617167 -42.3553159715969 0.748622455520536 -60.1056721895937 0.748622455520535 -60.1056721895937 0.2068310766815  -42.3546614684897 
! Gamma         0.777545779538073 2.81660290072135 0.777759656808373 2.81704656124369 
! Port Impedance         50               0                50               0                
0.07                           0.195938853922139 -50.0338535187702 0.743087653112492 -69.8207245186263 0.743087653112492 -69.8207245186263 0.195980195050573 -50.0325364966743 
! Gamma         0.803216669767974 3.24352414741297 0.80341070515688 3.24402964211376 
! Port Impedance         50               0                50               0                
0.08                           0.183130754251258 -57.587359111507 0.737515931529831 -79.4918118056695 0.737515931529831 -79.4918118056695 0.183183352729823 -57.585374986883 
! Gamma         0.825816194404652 3.67054352215731 0.825985595844575 3.67111630515448 
! Port Impedance         50               0                50               0                
0.09                           0.16868216617727 -64.9465928450952 0.731923888894969 -89.1171991428928 0.731923888894969 -89.1171991428928 0.168745713212645 -64.9439844450429 
! Gamma         0.846150603425181 4.09746952402569 0.846292142270001 4.09811516771455 
! Port Impedance         50               0                50               0                
0.1                            0.152944474884821 -72.0219067891788 0.72635719849505 -98.6934570482537 0.726357198495051 -98.6934570482536 0.153017819330357 -72.0187648564662 
! Gamma         0.864718344708838 4.52408873018861 0.864829998498311 4.52481281698241 
! Port Impedance         50               0                50               0                
0.11                           0.135423843770614 -78.9688228758497 0.723135635122499 -108.076591278016 0.7231356351225  -108.076591278016 0.135502291191657 -78.9638552552401 
! Gamma         0.873392175363041 4.94306601922266 0.873495021119031 4.94389968228762 
! Port Impedance         50               0                50               0                
0.12                           0.117747441805786 -85.3289095944554 0.719974256380506 -117.459472490345 0.719974256380507 -117.459472490345 0.117827821475085 -85.3217339893536 
! Gamma         0.88109761757092 5.36418313415086 0.881192752882304 5.36512419015471 
! Port Impedance         50               0                50               0                
0.13                           0.100220888308181 -90.9005673936194 0.716917832714365 -126.839211241323 0.716917832714367 -126.839211241323 0.100300227485384 -90.8905031759615 
! Gamma         0.888164592741292 5.78700261643005 0.888252797422679 5.78804929651584 
! Port Impedance         50               0                50               0                
0.14                           0.083185832584404 -95.3285463663763 0.713999446151859 -136.215044060183 0.713999446151861 -136.215044060183 0.0832615099957842 -95.3144827397928 
! Gamma         0.894821124161378 6.2111902666488  0.894902948540095 6.21234112624636 
! Port Impedance         50               0                50               0                
0.15                           0.067059909245974 -97.976374321787 0.711241185412114 -145.587596493428 0.711241185412115 -145.587596493428 0.0671300179185105 -97.9565259611364 
! Gamma         0.901228187893102 6.636487063265   0.901304014532225 6.63774091466135 
! Port Impedance         50               0                50               0                
0.16                           0.0524288748128426 -97.681706726972 0.708654671442946 -154.958372034417 0.708654671442947 -154.958372034417 0.0524929815023372 -97.6533479630656 
! Gamma         0.907501562456544 7.06268948460641 0.907571649870816 7.06404534531252 
! Port Impedance         50               0                50               0                
0.17                           0.0402493395461787 -92.4328236137582 0.706241674889579 -164.329370462749 0.70624167488958 -164.329370462749 0.0403099296763209 -92.3930235998412 
! Gamma         0.913725878193452 7.4896355408149  0.913790392118717 7.49109259418654 
! Port Impedance         50               0                50               0                
0.18                           0.0321345960635715 -79.9524539379367 0.703994944385811 -173.702788982247 0.703994944385814 -173.702788982248 0.0321987045015285 -79.9041359299213 
! Gamma         0.919963862534659 7.91719472873005 0.920022898588909 7.91875229364595 
! Port Impedance         50               0                50               0                
0.19                           0.0298627292941902 -62.2301798745925 0.701899285939377 176.919216671891 0.701899285939379 176.919216671891 0.0299397443003616 -62.1907315671052 
! Gamma         0.926262554429846 8.34526071290909 0.926316154847602 8.34691821934341 
! Port Impedance         50               0                50               0                
0.2                            0.0330511102991567 -47.7337098742305 0.699932890011705 167.534722000337 0.699932890011707 167.534722000337 0.03314711556459 -47.7143796079117 
! Gamma         0.932657563560148 8.77374592570933 0.932705729540947 8.7755028963384  
! Port Impedance         50               0                50               0                
0.21                           0.0390622458473679 -40.5579380324491 0.698068875487451 158.142179089992 0.698068875487453 158.142179089992 0.0391807898278202 -40.5525367677936 
! Gamma         0.939176042152514 9.20257753495324 0.939218743244355 9.20443356976641 
! Port Impedance         50               0                50               0                
0.22                           0.0456810725204338 -38.9058585704453 0.696276998980449 148.740519224442 0.69627699898045 148.740519224441 0.0458246938560195 -38.9073555738883 
! Gamma         0.945838792958665 9.63169439809805 0.945875974143502 9.63364916264203 
! Port Impedance         50               0                50               0                
0.23                           0.05175614758612 -40.52379596352  0.694525459849596 139.329213267913 0.694525459849598 139.329213267913 0.0519261343024669 -40.5285864613732 
! Gamma         0.952661787379949 10.0610447368122 0.952693374601979 10.0630979519781 
! Port Impedance         50               0                50               0                
0.24                           0.0567407189889075 -44.0288773822595 0.692782715467963 129.908290470977 0.692782715467965 129.908290470977 0.056936990812661 -44.0353523316233 
! Gamma         0.959657274344029 10.4905843429705 0.959683178740396 10.4927357774048 
! Port Impedance         50               0                50               0                
0.25                           0.0603752396778747 -48.6445853639819 0.691019209517843 120.478317351364 0.691019209517844 120.478317351364 0.0605963949968319 -48.6520389027467 
! Gamma         0.966834600861335 10.9202751820978 0.966854722147213 10.922524645343  
! Port Impedance         50               0                50               0                
0.26                           0.0625481945257915 -53.9165567457746 0.689208910897409 111.040340019621 0.68920891089741 111.04034001962  0.062791594337775 -53.9246834269827 
! Gamma         0.974200826774194 11.350084295541  0.974215055903861 11.3524316326191 
! Port Impedance         50               0                50               0                
0.27                           0.0632369427528488 -59.555182891646 0.687330564978852 101.595795297304 0.687330564978853 101.595795297304 0.0634988142044618 -59.5638545455626 
! Gamma         0.981761190587868 11.7799829305319 0.981769411876663 11.7824280175292 
! Port Impedance         50               0                50               0                
0.28                           0.0624808593578508 -65.3530566731037 0.685368573845386 92.1463980119237 0.685368573845386 92.1463980119234 0.0627564297184017 -65.3622168604428 
! Gamma         0.989519466256375 12.2099458456884 0.989521559110113 12.2124885858591 
! Port Impedance         50               0                50               0                
0.29                           0.0603679725379147 -71.1379287137181 0.683313447620519 82.6940135885573 0.683313447620519 82.694013588557  0.0606516454620985 -71.1475377487454 
! Gamma         0.997478239305216 12.6399507517659 0.997474079626808 12.6425910722327 
! Port Impedance         50               0                50               0                
0.3                            0.0570278431589523 -76.7401984898186 0.68116180300781 73.2405261145112 0.68116180300781 73.2405261145109 0.0573134271881746 -76.7502031583135 
! Gamma         1.00563912257048 13.0699778585917 1.00562858390064 13.0727157076864 
! Port Impedance         50               0                50               0                
0.31                           0.0526282059648498 -81.9624919973571 0.678915923666426 63.7877123132573 0.678915923666426 63.7877123132569 0.0529092066026981 -81.9728145617372 
! Gamma         1.01400292634189 13.5000095054086 1.01398588081562 13.5028448501936 
! Port Impedance         50               0                50               0                
0.32                           0.0473754406860029 -86.540666247152 0.676582935183434 54.3371311611986 0.676582935183433 54.3371311611982 0.0476454354164117 -86.5512270970456 
! Gamma         1.02256979375455 13.9300298572266 1.02254611287575 13.9329626816107 
! Port Impedance         50               0                50               0                
0.33                           0.0415213283437053 -90.0824671335631 0.674173680149549 44.8900372642387 0.674173680149548 44.8900372642383 0.0417744640445254 -90.0932968720919 
! Gamma         1.0313393094073  14.3600246545737 1.03130886471493 14.3630549574141 
! Port Impedance         50               0                50               0                
0.34                           0.0353823782388119 -91.9638425454682 0.671701402062728 35.4473238378117 0.671701402062728 35.4473238378113 0.0356140717261679 -91.9754529257851 
! Gamma         1.0403105873216  14.78998100484   1.04027325093177 14.7931087985099 
! Port Impedance         50               0                50               0                
0.35                           0.0293847644222588 -91.1700348421392 0.669180358221374 26.009498289662  0.669180358221373 26.0094982896617 0.029592753264808 -91.184512016618 
! Gamma         1.04948234264522 15.2198872088146 1.04943798771521 15.2231125178428 
! Port Impedance         50               0                50               0                
0.36                           0.0241516116379735 -86.1961391059547 0.666624480725357 16.5766905516467 0.666624480725356 16.5766905516463 0.0243375197533337 -86.219797865634 
! Gamma         1.05885295065189 15.6497326146071 1.05880145177235 15.6530554744767 
! Port Impedance         50               0                50               0                
0.37                           0.0205881787810662 -75.7440466455073 0.664046192656503 7.14869148921578 0.664046192656503 7.14869148921542 0.0207593376613239 -75.7901259034049 
! Gamma         1.0684204956233  16.0795074946444 1.06836172915215 16.0829279506999 
! Port Impedance         50               0                50               0                
0.38                           0.0196283282891156 -61.4893532710095 0.66145546575846 -2.27498362942945 0.661455465758459 -2.27498362942981 0.0197983048571454 -61.568484457198 
! Gamma         1.07818281168285 16.5092029412737 1.07811665602431 16.5127210478116 
! Port Impedance         50               0                50               0                
0.39                           0.0213585145585461 -49.0297717905057 0.658859179579392 -11.6950134404872 0.65885917957939 -11.6950134404875 0.021544305003818 -49.1327800380132 
! Gamma         1.08813751714629 16.938810778028  1.08806385298147 16.9424265975844 
! Port Impedance         50               0                50               0                
0.4                            0.0248164312665491 -41.9048353506255 0.656260812984593 -21.1121785251773 0.656260812984591 -21.1121785251777 0.0250329179229381 -42.0164956147011 
! Gamma         1.09828204364872 17.3683234836585 1.09820075414928 17.3720370860849 
! Port Impedance         50               0                50               0                
0.41                           0.0289263606734771 -39.5583577248829 0.653660469777674 -30.5272675811324 0.653660469777671 -30.5272675811328 0.0291828223741679 -39.6717565146747 
! Gamma         1.10861366102016 17.7977341268656 1.10852463201335 17.8015455887535 
! Port Impedance         50               0                50               0                
0.42                           0.0329788944850468 -40.3858811713203 0.651055212887609 -39.9409898687396 0.651055212887607 -39.94098986874  0.0332792522827959 -40.4997089560099 
! Gamma         1.11912949868336 18.2270363100013 1.11903261879823 18.2309457140468 
! Port Impedance         50               0                50               0                
0.43                           0.0365626659830221 -43.1725773454786 0.648439657760853 -49.3539011927219 0.648439657760851 -49.3539011927222 0.0369068066087358 -43.287373951219 
! Gamma         1.12982656418435 18.6562241204002 1.12972172497092 18.6602315548925 
! Port Impedance         50               0                50               0                
0.44                           0.0394384771203921 -47.1577237635837 0.645806756515096 -58.7663492346648 0.645806756515094 -58.7663492346652 0.0398232894173284 -47.2744224308697 
! Gamma         1.14070175936158 19.0852920879763 1.14058885539591 19.0893976462323 
! Port Impedance         50               0                50               0                
0.45                           0.0414677274135015 -51.867671784619 0.643148691201866 -68.1784421724916 0.643148691201863 -68.178442172492 0.0418877892803291 -51.9871911056477 
! Gamma         1.15175189454937 19.514235148116  1.15163082351614 19.5184389280375 
! Port Impedance         50               0                50               0                
0.46                           0.042577933084402 -56.9894887791237 0.640457788170174 -77.590042339352 0.640457788170171 -77.5900423393523 0.0430260092526351 -57.1126571965483 
! Gamma         1.16297370112201 19.9430486093036 1.1628443638813  19.9473507129751 
! Port Impedance         50               0                50               0                
0.47                           0.0427461513327747 -62.2951640171192 0.637727366737204 -87.0007843426537 0.637727366737201 -87.000784342654 0.0432136161641643 -62.4227415356521 
! Gamma         1.17436384265693 20.3717281245136 1.17422614329796 20.3761286578246 
! Port Impedance         50               0                50               0                
0.48                           0.0419906972664746 -67.5953442295111 0.634952444414873 -96.4101148263194 0.63495244441487 -96.4101148263198 0.042467945054144 -67.7280768385088 
! Gamma         1.18591892491543 20.8002696660328 1.18577277080371 20.8047687382262 
! Port Impedance         50               0                50               0                
0.49                           0.0403669914691587 -72.7068211812901 0.632130237270742 -105.817349084088 0.632130237270738 -105.817349084088 0.0408438685804189 -72.8455190499995 
! Gamma         1.19763550483404 21.2286695029151 1.19748080663603 21.2332672263609 
! Port Impedance         50               0                50               0                
0.5                            0.0379660447956344 -77.4234376609073 0.629260416249871 -115.221738274162 0.629260416249868 -115.221738274163 0.0384323274621276 -77.5690916628675 
! Gamma         1.20951009864281 21.6569241811236 1.20934677035013 21.6616206709565 
! Port Impedance         50               0                50               0                
0.51                           0.0349156479829398 -81.4823110165032 0.626345106139135 -124.622540141396 0.626345106139131 -124.622540141396 0.035361592473212 -81.6362820144509 
! Gamma         1.22153918925115 22.0850305056419 1.2213671481934  22.0898258794566 
! Port Impedance         50               0                50               0                
0.52                           0.0313857266470255 -84.5176143963589 0.623388640480538 -134.019086078428 0.623388640480534 -134.019086078428 0.0318027361202549 -84.6819552467886 
! Gamma         1.2337192329873  22.512985524461  1.2335383998363  22.5178799020397 
! Port Impedance         50               0                50               0                
0.53                           0.0276010461313212 -85.9970318837389 0.620397110033781 -143.410838001769 0.620397110033777 -143.41083800177 0.027982536487759 -86.1750166952764 
! Gamma         1.24604666578324 22.9407865140156 1.2458569645461  22.9457800171417 
! Port Impedance         50               0                50               0                
0.54                           0.0238658793597369 -85.1593124480333 0.617377761627111 -152.797429833947 0.617377761627106 -152.797429833947 0.024208488927982 -85.3561155900438 
! Gamma         1.25851790885306 23.3684309662173 1.25831926686515 23.3735237183866 
! Port Impedance         50               0                50               0                
0.55                           0.02059979015746 -81.0757086043635 0.61433831639832 -162.178690153746 0.614338316398317 -162.178690153747 0.020905127080414 -81.298338544961 
! Gamma         1.27112937394558 23.795916576476  1.27092172185511 23.8011087026638 
! Port Impedance         50               0                50               0                
0.56                           0.0183448914192432 -73.2186153402222 0.611286280594699 -171.554644647959 0.611286280594695 -171.554644647959 0.0186217940981785 -73.4719616443261 
! Gamma         1.28387746820383 24.2232412328255 1.28366073994797 24.2285328593229 
! Port Impedance         50               0                50               0                
0.57                           0.0176125350497007 -62.792009212061 0.608228318366118 179.074500916959 0.608228318366114 179.074500916959 0.0178785274782741 -63.0697103687041 
! Gamma         1.29675859867295 24.6504030060107 1.29653273145532 24.6557942601518 
! Port Impedance         50               0                50               0                
0.58                           0.0185209718856417 -53.0136484408652 0.60516974542161 169.708394581027 0.605169745421607 169.708394581026 0.0187994040669279 -53.298608386259 
! Gamma         1.30976917649895 25.0774001402546 1.30953411075255 25.0828911503453 
! Port Impedance         50               0                50               0                
0.59                           0.0206609137618961 -46.5015060651416 0.602114186727951 160.346584759452 0.602114186727947 160.346584759452 0.0209733746500335 -46.7815554992292 
! Gamma         1.32290562083488 25.5042310448594 1.32266130019223 25.5098219398978 
! Port Impedance         50               0                50               0                
0.6                            0.0234290695353974 -43.6270785375974 0.599063422605046 150.988574275684 0.599063422605042 150.988574275683 0.0237898974895977 -43.9001366059731 
! Gamma         1.33616436249065 25.9308942863241 1.3359107337414  25.9365851958993 
! Port Impedance         50               0                50               0                
0.61                           0.0263286753690231 -43.5842356909283 0.596017427683309 141.633876138482 0.596017427683305 141.633876138482 0.0267445630205875 -43.8527979555999 
! Gamma         1.34954184734154 26.3573885810366 1.34927886039172 26.363179635137  
! Port Impedance         50               0                50               0                
0.62                           0.0290233317850035 -45.4785039083866 0.592974588104587 132.282065426394 0.592974588104583 132.282065426394 0.0294950069126031 -45.7457079440558 
! Gamma         1.36303453951637 26.7837127884195 1.36276214733985 26.78960411734   
! Port Impedance         50               0                50               0                
0.63                           0.0312964397060638 -48.6373507388653 0.589932065707823 122.932822256422 0.589932065707818 122.932822256422 0.031820269418579 -48.905835597649 
! Gamma         1.37663892437301 27.2098659046399 1.37635708296579 27.2158576387847 
! Port Impedance         50               0                50               0                
0.64                           0.0330112296345834 -52.5959611618785 0.586886265051828 113.585961904659 0.586886265051824 113.585961904659 0.0335803669460987 -52.8677961086889 
! Gamma         1.39035151129244 27.6358470564877 1.39006017962032 27.6419393262618 
! Port Impedance         50               0                50               0                
0.65                           0.0340865245711816 -57.0283626847186 0.583833351002757 104.241449559841 0.583833351002752 104.241449559841 0.0346917356710227 -57.3052186334222 
! Gamma         1.40416883628715 28.0616554957108 1.40386797622932 28.0678484314519 
! Port Impedance         50               0                50               0                
0.66                           0.0344836039239973 -61.6904922263669 0.580769761843188 94.8993988329422 0.580769761843183 94.899398832942  0.0351139312284291 -61.9738292951219 
! Gamma         1.41808746443682 28.4872905937185 1.41777704073471 28.4935843254886 
! Port Impedance         50               0                50               0                
0.67                           0.0341992716996301 -66.3800876695113 0.577692665634903 85.5600548264793 0.577692665634899 85.5600548264791 0.0348426304170905 -66.6713239958631 
! Gamma         1.43210399216945 28.9127518364566 1.43178397236685 28.919146493979  
! Port Impedance         50               0                50               0                
0.68                           0.0332623605134344 -70.9071679130511 0.574600315559755 76.2237641156037 0.57460031555975 76.2237641156035 0.0339061253502704 -71.20784278415  
! Gamma         1.44621504939283 29.3380388194866 1.44588540377465 29.3445345320817 
! Port Impedance         50               0                50               0                
0.69                           0.0317324592677424 -75.0688627529392 0.571492272294188 66.8909352597629 0.571492272294184 66.8909352597627 0.0323640782790545 -75.3808167590312 
! Gamma         1.46041730147469 29.7631512434422 1.46007800300901 29.7697481398716 
! Port Impedance         50               0                50               0                
0.7                            0.0297006616268126 -78.6238231521494 0.568369476765892 57.56199432871   0.568369476765887 57.5619943287099 0.0303083312658768 -78.9494157037283 
! Gamma         1.47470745109071 30.1880889095835 1.4743584753649  30.1947871180014 
! Port Impedance         50               0                50               0                
0.71                           0.0272928795813921 -81.2635426049187 0.56523417316717 48.2373402732858 0.565234173167165 48.2373402732857 0.0278663269305407 -81.6059046384134 
! Gamma         1.48908223994009 30.612851715575  1.48872356509862 30.6196513634183 
! Port Impedance         50               0                50               0                
0.72                           0.0246767645377398 -82.583843113412 0.562089697951102 38.9173048051492 0.562089697951097 38.9173048051491 0.0252082104797091 -82.9470712062715 
! Gamma         1.50353845033798 31.0374396513889 1.50317005701705 31.0443408653255 
! Port Impedance         50               0                50               0                
0.73                           0.0220726706738071 -82.0791547570997 0.558940163944843 29.602120782162  0.558940163944838 29.6021207821619 0.0225580868388205 -82.4680634300616 
! Gamma         1.51807290668372 31.4618527954522 1.51769477794912 31.468855701249  
! Port Impedance         50               0                50               0                
0.74                           0.0197639781415169 -79.232960895892 0.555790078256427 20.2919020425509 0.555790078256422 20.2919020425508 0.0202047538353793 -79.6513764867378 
! Gamma         1.53268247682256 31.8860913107671 1.53229459810015 31.8931960333054 
! Port Impedance         50               0                50               0                
0.75                           0.0180852617482202 -73.8452522740996 0.552643937484647 10.9866362888251 0.552643937484642 10.986636288825  0.0184901540994171 -74.2915807631684 
! Gamma         1.54736407328435 32.3101554414287 1.54696643229774 32.3173621045618 
! Port Impedance         50               0                50               0                
0.76                           0.0173432635619805 -66.5995780493704 0.549505843610018 1.68619120920394 0.549505843610014 1.68619120920385 0.0177295365816653 -67.0619996243542 
! Gamma         1.56211465442925 32.7340455089976 1.56170724112986 32.7413542355665 
! Port Impedance         50               0                50               0                
0.77                           0.0176634703510023 -59.2172157288601 0.546379179258208 -7.60966737968613 0.546379179258204 -7.60966737968621 0.0180547937648562 -59.6774992487996 
! Gamma         1.57693122548232 33.1577619091804 1.57651403198594 33.1651728208953 
! Port Impedance         50               0                50               0                
0.78                           0.0188985116486595 -53.489399300432 0.543266372602091 -16.9012477574452 0.543266372602086 -16.9012477574453 0.0193188896645588 -53.935069893622 
! Gamma         1.59181083947497 33.5813051085258 1.59138385999501 33.5888183259143 
! Port Impedance         50               0                50               0                
0.79                           0.0207228457476146 -50.218599590383 0.540168771198626 -26.1888981724343 0.540168771198621 -26.1888981724343 0.0211906682604299 -50.6477205040226 
! Gamma         1.60675059809227 34.0046756412195 1.60631382887045 34.0122912836367 
! Port Impedance         50               0                50               0                
0.8                            0.0227945829589253 -49.2686999049088 0.537086631828921 -35.4729701503665 0.537086631828917 -35.4729701503666 0.0233204442923307 -49.6852631867668 
! Gamma         1.62174765242568 34.4278741060651 1.62130109166834 34.4355922915939 
! Port Impedance         50               0                50               0                
0.81                           0.0248390415247662 -50.1335283944632 0.534019221215015 -44.7537831217411 0.534019221215011 -44.7537831217411 0.0254264396481398 -50.542726146349 
! Gamma         1.63679920364422 34.8509011634438 1.63634285145434 34.8587220088899 
! Port Impedance         50               0                50               0                